ITEM: TIMESTEP
100000
ITEM: NUMBER OF ATOMS
400
ITEM: BOX BOUNDS pp pp pp
0.0000000000000000e+00 2.3904572186687872e+01
0.0000000000000000e+00 2.3904572186687872e+01
-5.9761430466719678e-01 5.9761430466719678e-01
ITEM: ATOMS id type xs ys zs
258 1 0.449936 0.159601 0.5
94 1 0.408397 0.0521359 0.5
137 1 0.0170921 0.238389 0.5
366 1 0.258039 0.116112 0.5
15 1 0.437627 0.333453 0.5
26 1 0.114038 0.476126 0.5
192 1 0.147291 0.0600631 0.5
150 1 0.368294 0.0816391 0.5
49 1 0.491344 0.0036089 0.5
229 1 0.480638 0.361839 0.5
264 1 0.315344 0.431768 0.5
75 1 0.224954 0.0266227 0.5
155 1 0.344006 0.115506 0.5
19 1 0.295524 0.0967978 0.5
39 1 0.0792471 0.0740064 0.5
253 1 0.219967 0.0859377 0.5
98 1 0.206625 0.131585 0.5
239 1 0.363836 0.164269 0.5
277 1 0.0777407 0.129089 0.5
6 1 0.451842 0.0888481 0.5
102 1 0.477311 0.122809 0.5
326 1 0.0342423 0.370702 0.5
112 1 0.103685 0.0321343 0.5
355 1 0.29605 0.0542034 0.5
24 1 0.229875 0.168721 0.5
248 1 0.175187 0.265291 0.5
86 1 0.0917115 0.197864 0.5
347 1 0.174521 0.172384 0.5
33 1 0.255743 0.209414 0.5
378 1 0.408207 0.170843 0.5
70 1 0.327956 0.188951 0.5
120 1 0.200501 0.301391 0.5
262 1 0.0388429 0.157511 0.5
237 1 0.271358 0.294473 0.5
124 1 0.156043 0.325044 0.5
224 1 0.421898 0.122263 0.5
235 1 0.201755 0.215611 0.5
148 1 0.120555 0.15877 0.5
169 1 0.371668 0.35293 0.5
234 1 0.303778 0.226604 0.5
290 1 0.285578 0.177725 0.5
360 1 0.0329691 0.452244 0.5
260 1 0.499344 0.280794 0.5
61 1 0.221593 0.267125 0.5
178 1 0.155445 0.383323 0.5
17 1 0.0758896 0.448404 0.5
84 1 0.329552 0.323279 0.5
5 1 0.137364 0.428218 0.5
376 1 0.469037 0.244409 0.5
135 1 0.407854 0.30559 0.5
2 1 0.120598 0.365402 0.5
179 1 0.276982 0.256569 0.5
81 1 0.344736 0.232153 0.5
372 1 0.367434 0.299148 0.5
77 1 0.402331 0.418676 0.5
139 1 0.0953888 0.401506 0.5
255 1 0.245064 0.437486 0.5
352 1 0.385417 0.226911 0.5
41 1 0.433027 0.378124 0.5
162 1 0.139987 0.199553 0.5
207 1 0.118525 0.305106 0.5
60 1 0.252599 0.369563 0.5
300 1 0.316051 0.272105 0.5
316 1 0.182247 0.439614 0.5
117 1 0.450657 0.00663928 0.5
156 1 0.0474378 0.267758 0.5
132 1 0.187191 0.00420809 0.5
43 1 0.0702938 0.303975 0.5
227 1 0.276338 0.405481 0.5
363 1 0.338867 0.0385458 0.5
177 1 0.349529 0.394016 0.5
328 1 0.158292 0.476434 0.5
315 1 0.453165 0.419818 0.5
222 1 0.311101 0.37783 0.5
221 1 0.316604 0.147229 0.5
73 1 0.430735 0.271639 0.5
213 1 0.0591177 0.342514 0.5
157 1 0.223724 0.471755 0.5
22 1 0.0253091 0.30314 0.5
69 1 0.112358 0.10749 0.5
159 1 0.268686 0.471908 0.5
311 1 0.206531 0.401102 0.5
21 1 0.204438 0.354045 0.5
160 1 0.366399 0.44516 0.5
90 1 0.431141 0.223454 0.5
107 1 0.448729 0.473863 0.5
125 1 0.0822403 0.245064 0.5
225 1 0.398161 0.480648 0.5
106 1 0.308957 0.482404 0.5
40 1 0.494429 0.492302 0.5
283 1 0.402471 0.00177346 0.5
167 1 0.171214 0.108607 0.5
247 1 0.0503058 0.410158 0.5
346 1 0.500823 0.408378 0.5
204 1 0.131829 0.255809 0.5
274 1 0.0428238 0.0437929 0.5
337 1 0.493545 0.16666 0.5
320 1 0.0429793 0.102067 0.5
16 1 0.0169514 0.19584 0.5
46 1 0.261113 0.00510868 0.5
93 1 0.491274 0.0546412 0.5
250 1 0.494164 0.450892 0.5
29 1 0.421447 0.691357 0.5
196 1 0.0254367 0.798683 0.5
325 1 0.372223 0.59417 0.5
392 1 0.166878 0.533807 0.5
28 1 0.480191 0.723992 0.5
361 1 0.264891 0.938134 0.5
339 1 0.0380525 0.509258 0.5
165 1 0.185438 0.620881 0.5
146 1 0.286628 0.75628 0.5
371 1 0.247719 0.696249 0.5
211 1 0.476093 0.638518 0.5
321 1 0.271195 0.607896 0.5
4 1 0.138433 0.735984 0.5
113 1 0.443779 0.57301 0.5
85 1 0.373512 0.946114 0.5
294 1 0.152991 0.697842 0.5
284 1 0.0799919 0.70724 0.5
230 1 0.289518 0.521691 0.5
87 1 0.290104 0.56346 0.5
327 1 0.126495 0.524929 0.5
95 1 0.12215 0.579443 0.5
386 1 0.196682 0.828102 0.5
68 1 0.229269 0.65711 0.5
349 1 0.0831412 0.59972 0.5
50 1 0.138414 0.628062 0.5
52 1 0.108937 0.659507 0.5
308 1 0.188433 0.727303 0.5
53 1 0.317198 0.630584 0.5
103 1 0.414484 0.532633 0.5
242 1 0.245075 0.746711 0.5
110 1 0.168411 0.951988 0.5
161 1 0.0403688 0.582625 0.5
51 1 0.0674003 0.657953 0.5
304 1 0.234126 0.786846 0.5
344 1 0.322996 0.683937 0.5
57 1 0.363146 0.635465 0.5
302 1 0.0340937 0.632456 0.5
37 1 0.0940383 0.764075 0.5
8 1 0.367876 0.709541 0.5
368 1 0.450179 0.843976 0.5
47 1 0.331494 0.526203 0.5
232 1 0.0697652 0.796113 0.5
209 1 0.0957484 0.842844 0.5
119 1 0.289405 0.710237 0.5
78 1 0.328311 0.72422 0.5
186 1 0.246754 0.50664 0.5
64 1 0.32582 0.584417 0.5
267 1 0.0259161 0.716557 0.5
276 1 0.0823288 0.937597 0.5
345 1 0.1809 0.883695 0.5
89 1 0.131536 0.775439 0.5
301 1 0.395316 0.799005 0.5
269 1 0.343549 0.767008 0.5
203 1 0.463604 0.770774 0.5
341 1 0.00257884 0.910782 0.5
329 1 0.148158 0.914394 0.5
270 1 0.154827 0.808096 0.5
205 1 0.187101 0.778352 0.5
373 1 0.316513 0.801949 0.5
390 1 0.342093 0.870786 0.5
343 1 0.385082 0.90172 0.5
381 1 0.383988 0.747116 0.5
10 1 0.099831 0.899116 0.5
136 1 0.31069 0.98495 0.5
333 1 0.260815 0.818245 0.5
191 1 0.046395 0.758777 0.5
259 1 0.0832296 0.531655 0.5
288 1 0.196805 0.505931 0.5
261 1 0.210906 0.936872 0.5
357 1 0.308699 0.841133 0.5
13 1 0.352745 0.819414 0.5
257 1 0.142455 0.851623 0.5
118 1 0.0582279 0.89147 0.5
172 1 0.0383167 0.934151 0.5
340 1 0.408654 0.846523 0.5
121 1 0.485771 0.824215 0.5
11 1 0.16924 0.576644 0.5
358 1 0.0113231 0.553101 0.5
138 1 0.425185 0.611699 0.5
202 1 0.24847 0.86237 0.5
398 1 0.485036 0.87258 0.5
263 1 0.055826 0.83292 0.5
353 1 0.436606 0.923486 0.5
330 1 0.313986 0.934239 0.5
168 1 0.228289 0.61117 0.5
265 1 0.383471 0.670907 0.5
350 1 0.448759 0.967326 0.5
30 1 0.436165 0.803599 0.5
238 1 0.233539 0.901497 0.5
335 1 0.0147924 0.991476 0.5
101 1 0.28063 0.899584 0.5
289 1 0.0849993 0.991353 0.5
76 1 0.363101 0.500932 0.5
256 1 0.250123 0.570217 0.5
193 1 0.484937 0.942323 0.5
322 1 0.176084 0.659795 0.5
396 1 0.205303 0.550856 0.5
123 1 0.461809 0.530687 0.5
82 1 0.0250697 0.675756 0.5
317 1 0.130957 0.971777 0.5
79 1 0.00569354 0.849182 0.5
72 1 0.487335 0.680482 0.5
12 1 0.362531 0.990339 0.5
144 1 0.852016 0.303879 0.5
58 1 0.571287 0.188866 0.5
310 1 0.819448 0.14012 0.5
384 1 0.769699 0.257971 0.5
297 1 0.575328 0.0386733 0.5
133 1 0.583568 0.10814 0.5
55 1 0.651923 0.0162834 0.5
318 1 0.668286 0.155303 0.5
63 1 0.837643 0.0872773 0.5
45 1 0.882204 0.11938 0.5
251 1 0.951406 0.462343 0.5
216 1 0.82917 0.458778 0.5
299 1 0.786223 0.418195 0.5
307 1 0.614543 0.298481 0.5
154 1 0.557837 0.268056 0.5
319 1 0.944859 0.325555 0.5
393 1 0.970551 0.381976 0.5
151 1 0.627538 0.140518 0.5
35 1 0.937224 0.101779 0.5
236 1 0.92696 0.0491379 0.5
399 1 0.900737 0.0800156 0.5
313 1 0.515825 0.204091 0.5
241 1 0.550629 0.00465699 0.5
359 1 0.539485 0.152997 0.5
380 1 0.771275 0.0791343 0.5
126 1 0.982876 0.434007 0.5
67 1 0.54886 0.411251 0.5
184 1 0.644295 0.190464 0.5
185 1 0.612019 0.47706 0.5
351 1 0.527709 0.376356 0.5
65 1 0.989265 0.343522 0.5
356 1 0.797004 0.0382939 0.5
342 1 0.772675 0.138974 0.5
240 1 0.968853 0.0664191 0.5
275 1 0.971522 0.25485 0.5
129 1 0.554068 0.22719 0.5
282 1 0.70403 0.22896 0.5
183 1 0.653207 0.253973 0.5
197 1 0.922685 0.152987 0.5
42 1 0.929585 0.420768 0.5
182 1 0.911617 0.353698 0.5
7 1 0.978508 0.112822 0.5
143 1 0.639757 0.330786 0.5
96 1 0.694702 0.0714983 0.5
285 1 0.79588 0.172834 0.5
99 1 0.896325 0.18419 0.5
377 1 0.866113 0.230544 0.5
379 1 0.596706 0.341929 0.5
244 1 0.582357 0.383041 0.5
228 1 0.654141 0.371887 0.5
223 1 0.593987 0.243449 0.5
18 1 0.830629 0.368808 0.5
109 1 0.840929 0.499428 0.5
152 1 0.537614 0.497927 0.5
140 1 0.667588 0.296906 0.5
338 1 0.644308 0.0867646 0.5
171 1 0.847094 0.180329 0.5
296 1 0.740912 0.0397287 0.5
20 1 0.62731 0.402354 0.5
92 1 0.713586 0.434186 0.5
369 1 0.750379 0.299864 0.5
108 1 0.533477 0.0996101 0.5
31 1 0.818686 0.249724 0.5
336 1 0.898426 0.476087 0.5
249 1 0.67374 0.46854 0.5
245 1 0.561153 0.31133 0.5
382 1 0.727234 0.360175 0.5
97 1 0.766384 0.202835 0.5
201 1 0.969217 0.208453 0.5
218 1 0.883717 0.389072 0.5
210 1 0.879746 0.0143907 0.5
219 1 0.929069 0.214636 0.5
400 1 0.711751 0.309569 0.5
131 1 0.727283 0.265518 0.5
83 1 0.980522 0.296208 0.5
266 1 0.888609 0.266093 0.5
164 1 0.747028 0.456667 0.5
147 1 0.794001 0.315627 0.5
278 1 0.618414 0.0487899 0.5
385 1 0.639992 0.442329 0.5
397 1 0.551547 0.4584 0.5
188 1 0.691438 0.393742 0.5
217 1 0.788178 0.458665 0.5
128 1 0.840826 0.412567 0.5
220 1 0.729837 0.183035 0.5
134 1 0.911395 0.30226 0.5
44 1 0.77168 0.380253 0.5
199 1 0.716823 0.128642 0.5
293 1 0.866787 0.347622 0.5
142 1 0.588674 0.428338 0.5
354 1 0.880111 0.43577 0.5
303 1 0.603955 0.00973934 0.5
71 1 0.696055 0.0175531 0.5
176 1 0.992539 0.15399 0.5
80 1 0.72786 0.496495 0.5
163 1 0.999875 0.0350127 0.5
243 1 0.549219 0.684872 0.5
389 1 0.512645 0.773437 0.5
145 1 0.973656 0.879277 0.5
348 1 0.994099 0.952384 0.5
114 1 0.786034 0.506488 0.5
214 1 0.781726 0.965692 0.5
365 1 0.575618 0.647458 0.5
208 1 0.516911 0.534658 0.5
268 1 0.930013 0.703853 0.5
254 1 0.790734 0.596957 0.5
195 1 0.993903 0.741151 0.5
130 1 0.637077 0.609839 0.5
309 1 0.631539 0.653033 0.5
280 1 0.562392 0.964319 0.5
226 1 0.598015 0.526982 0.5
23 1 0.930983 0.856234 0.5
187 1 0.876521 0.725846 0.5
100 1 0.940847 0.788285 0.5
306 1 0.613469 0.870019 0.5
298 1 0.670957 0.58686 0.5
212 1 0.810908 0.554428 0.5
175 1 0.972456 0.57614 0.5
14 1 0.881169 0.657271 0.5
272 1 0.540336 0.87238 0.5
111 1 0.550198 0.789389 0.5
387 1 0.584133 0.601365 0.5
62 1 0.85622 0.900011 0.5
364 1 0.712449 0.564811 0.5
32 1 0.50358 0.590379 0.5
9 1 0.535702 0.915114 0.5
115 1 0.881412 0.609171 0.5
38 1 0.977071 0.652894 0.5
323 1 0.576768 0.901186 0.5
394 1 0.998522 0.612523 0.5
292 1 0.951835 0.611616 0.5
166 1 0.650113 0.788405 0.5
141 1 0.680916 0.708304 0.5
233 1 0.730202 0.976884 0.5
189 1 0.620661 0.5702 0.5
198 1 0.834339 0.588113 0.5
181 1 0.807941 0.667791 0.5
88 1 0.846397 0.628439 0.5
48 1 0.566763 0.739895 0.5
105 1 0.746786 0.690254 0.5
287 1 0.821734 0.715334 0.5
153 1 0.727911 0.613456 0.5
281 1 0.768286 0.638678 0.5
395 1 0.930521 0.646755 0.5
295 1 0.904189 0.92199 0.5
180 1 0.614763 0.814056 0.5
331 1 0.670927 0.63545 0.5
362 1 0.76734 0.768919 0.5
273 1 0.910367 0.750196 0.5
27 1 0.931751 0.573411 0.5
149 1 0.849214 0.832934 0.5
388 1 0.54053 0.830048 0.5
59 1 0.701475 0.863408 0.5
116 1 0.867061 0.792249 0.5
332 1 0.807177 0.81258 0.5
286 1 0.51432 0.648525 0.5
74 1 0.612798 0.771409 0.5
91 1 0.616875 0.711522 0.5
25 1 0.663073 0.892552 0.5
374 1 0.732987 0.893678 0.5
383 1 0.717162 0.729862 0.5
314 1 0.715615 0.662173 0.5
104 1 0.842901 0.749437 0.5
190 1 0.625241 0.915632 0.5
174 1 0.52022 0.715519 0.5
127 1 0.698892 0.779364 0.5
291 1 0.772719 0.720314 0.5
158 1 0.961752 0.927519 0.5
324 1 0.94051 0.515173 0.5
1 1 0.680498 0.932662 0.5
305 1 0.646103 0.7446 0.5
231 1 0.954303 0.734496 0.5
54 1 0.672077 0.973967 0.5
56 1 0.91004 0.813995 0.5
367 1 0.667007 0.838533 0.5
271 1 0.766471 0.812165 0.5
200 1 0.856859 0.963638 0.5
215 1 0.666426 0.516069 0.5
246 1 0.814572 0.911509 0.5
375 1 0.887434 0.871912 0.5
122 1 0.603512 0.96593 0.5
206 1 0.769221 0.877492 0.5
370 1 0.914313 0.972748 0.5
66 1 0.82125 0.867809 0.5
170 1 0.548972 0.564125 0.5
312 1 0.751722 0.537143 0.5
391 1 0.987933 0.69902 0.5
194 1 0.575735 0.85056 0.5
34 1 0.738923 0.845429 0.5
173 1 0.753265 0.933465 0.5
3 1 0.977888 0.814989 0.5
334 1 0.518367 0.967707 0.5
252 1 0.83136 0.994652 0.5
279 1 0.947505 0.997156 0.5
36 1 0.987288 0.501747 0.5
