ITEM: TIMESTEP
100000
ITEM: NUMBER OF ATOMS
400
ITEM: BOX BOUNDS pp pp pp
0.0000000000000000e+00 2.5819888974716111e+01
0.0000000000000000e+00 2.5819888974716111e+01
-6.4549722436790280e-01 6.4549722436790280e-01
ITEM: ATOMS id type xs ys zs
355 1 0.0445187 0.00203993 0.5
99 1 0.145869 0.0250541 0.5
320 1 0.235203 0.00390937 0.5
307 1 0.288767 0.00842207 0.5
104 1 0.357564 0.0211979 0.5
9 1 0.459859 0.0123445 0.5
205 1 0.0134664 0.0271808 0.5
289 1 0.0526348 0.0498676 0.5
201 1 0.103911 0.0332635 0.5
361 1 0.19267 0.0344901 0.5
393 1 0.416428 0.0312194 0.5
44 1 0.49657 0.0474405 0.5
388 1 0.0884679 0.0728718 0.5
74 1 0.129263 0.0611753 0.5
311 1 0.228381 0.0559741 0.5
122 1 0.275764 0.0570515 0.5
318 1 0.367435 0.0673192 0.5
67 1 0.458593 0.0556831 0.5
282 1 0.139249 0.10139 0.5
303 1 0.170406 0.0801466 0.5
246 1 0.242918 0.105243 0.5
329 1 0.30595 0.0840821 0.5
340 1 0.345278 0.101988 0.5
160 1 0.43194 0.0911211 0.5
275 1 0.0962328 0.110859 0.5
63 1 0.203276 0.120031 0.5
24 1 0.400259 0.117053 0.5
398 1 0.474354 0.12753 0.5
149 1 0.0173185 0.151574 0.5
330 1 0.057268 0.138027 0.5
73 1 0.166136 0.155538 0.5
13 1 0.291019 0.13965 0.5
156 1 0.338179 0.138283 0.5
373 1 0.0924404 0.158963 0.5
192 1 0.252362 0.160209 0.5
203 1 0.323603 0.178275 0.5
204 1 0.381647 0.174997 0.5
91 1 0.0374345 0.196389 0.5
31 1 0.122896 0.194974 0.5
353 1 0.168903 0.195248 0.5
202 1 0.233506 0.19436 0.5
315 1 0.435386 0.185035 0.5
255 1 0.484652 0.191771 0.5
319 1 0.0379553 0.235483 0.5
271 1 0.0793551 0.225266 0.5
195 1 0.208617 0.229642 0.5
232 1 0.354947 0.213124 0.5
75 1 0.115007 0.254033 0.5
153 1 0.328589 0.239635 0.5
270 1 0.376539 0.245974 0.5
71 1 0.449152 0.253328 0.5
82 1 0.485431 0.240743 0.5
266 1 0.065191 0.274262 0.5
128 1 0.225832 0.28124 0.5
326 1 0.411901 0.285182 0.5
267 1 0.0222443 0.306195 0.5
363 1 0.0989594 0.299547 0.5
208 1 0.152571 0.295615 0.5
129 1 0.315283 0.309109 0.5
29 1 0.465944 0.315676 0.5
2 1 0.497384 0.295409 0.5
77 1 0.060515 0.316954 0.5
216 1 0.127102 0.327551 0.5
72 1 0.166606 0.331741 0.5
371 1 0.229258 0.331186 0.5
83 1 0.285315 0.333802 0.5
335 1 0.349404 0.338249 0.5
28 1 0.39164 0.339395 0.5
300 1 0.424572 0.321705 0.5
186 1 0.0270548 0.351044 0.5
378 1 0.067555 0.364522 0.5
17 1 0.195771 0.360461 0.5
399 1 0.308016 0.367004 0.5
41 1 0.474559 0.358327 0.5
350 1 0.129065 0.385554 0.5
89 1 0.231104 0.370262 0.5
102 1 0.339224 0.384105 0.5
111 1 0.431544 0.374196 0.5
223 1 0.0365144 0.394825 0.5
62 1 0.0935449 0.395752 0.5
349 1 0.174943 0.408616 0.5
259 1 0.212489 0.413457 0.5
381 1 0.253552 0.407725 0.5
21 1 0.397539 0.402222 0.5
380 1 0.489698 0.417874 0.5
235 1 0.0314954 0.44005 0.5
181 1 0.110175 0.433416 0.5
370 1 0.161596 0.44657 0.5
59 1 0.300981 0.4288 0.5
397 1 0.343922 0.426046 0.5
249 1 0.39263 0.444633 0.5
84 1 0.441251 0.427348 0.5
212 1 0.0742037 0.455285 0.5
176 1 0.205613 0.450316 0.5
154 1 0.266302 0.450543 0.5
36 1 0.344068 0.464642 0.5
296 1 0.460681 0.470917 0.5
336 1 0.0697285 0.493061 0.5
334 1 0.176573 0.491988 0.5
177 1 0.232431 0.486011 0.5
250 1 0.2927 0.489907 0.5
175 1 0.424403 0.48211 0.5
279 1 0.01104 0.50076 0.5
114 1 0.144914 0.52549 0.5
118 1 0.258264 0.52085 0.5
182 1 0.0609236 0.534649 0.5
68 1 0.206032 0.537598 0.5
85 1 0.308871 0.538557 0.5
185 1 0.350399 0.546299 0.5
227 1 0.409131 0.549623 0.5
109 1 0.439597 0.529466 0.5
123 1 0.480605 0.526717 0.5
3 1 0.100985 0.555994 0.5
211 1 0.140128 0.56475 0.5
98 1 0.245717 0.566786 0.5
97 1 0.0664664 0.584504 0.5
130 1 0.153069 0.600024 0.5
146 1 0.190808 0.584768 0.5
96 1 0.28045 0.588438 0.5
101 1 0.357643 0.589918 0.5
38 1 0.401121 0.589216 0.5
194 1 0.0448661 0.618555 0.5
46 1 0.0854774 0.627145 0.5
389 1 0.300547 0.625226 0.5
70 1 0.383325 0.625738 0.5
1 1 0.454889 0.609386 0.5
214 1 0.149052 0.638629 0.5
268 1 0.18989 0.650776 0.5
387 1 0.249407 0.639709 0.5
137 1 0.333889 0.654507 0.5
61 1 0.421852 0.653066 0.5
253 1 0.0421996 0.665757 0.5
325 1 0.115631 0.661033 0.5
86 1 0.165912 0.681322 0.5
365 1 0.36716 0.675494 0.5
155 1 0.0314681 0.70363 0.5
126 1 0.119621 0.698359 0.5
151 1 0.204165 0.694574 0.5
187 1 0.425244 0.69664 0.5
191 1 0.477066 0.690616 0.5
233 1 0.229834 0.722159 0.5
288 1 0.271928 0.71099 0.5
297 1 0.335176 0.721499 0.5
178 1 0.393156 0.719238 0.5
396 1 0.0133817 0.753605 0.5
277 1 0.0858109 0.74339 0.5
305 1 0.134121 0.738246 0.5
375 1 0.192278 0.750343 0.5
323 1 0.267175 0.758202 0.5
209 1 0.45798 0.736882 0.5
301 1 0.488343 0.761585 0.5
278 1 0.0605546 0.784457 0.5
15 1 0.106241 0.783242 0.5
139 1 0.302918 0.778487 0.5
354 1 0.358333 0.766232 0.5
81 1 0.413746 0.763723 0.5
189 1 0.177504 0.796791 0.5
302 1 0.283159 0.815053 0.5
158 1 0.381496 0.801907 0.5
39 1 0.430395 0.800497 0.5
18 1 0.469813 0.796681 0.5
308 1 0.00423736 0.821484 0.5
172 1 0.110529 0.829674 0.5
150 1 0.175609 0.841705 0.5
366 1 0.227259 0.841499 0.5
258 1 0.319028 0.820814 0.5
310 1 0.0678294 0.842466 0.5
295 1 0.130797 0.861244 0.5
386 1 0.279495 0.85915 0.5
142 1 0.321488 0.864795 0.5
135 1 0.360594 0.843662 0.5
134 1 0.45599 0.85292 0.5
115 1 0.0638614 0.878367 0.5
328 1 0.104473 0.89091 0.5
291 1 0.416661 0.875346 0.5
234 1 0.159704 0.920401 0.5
382 1 0.264464 0.896654 0.5
200 1 0.338074 0.900032 0.5
247 1 0.375279 0.895955 0.5
280 1 0.00383391 0.925065 0.5
341 1 0.0539107 0.937049 0.5
369 1 0.188998 0.942863 0.5
50 1 0.250239 0.941834 0.5
108 1 0.291895 0.922916 0.5
346 1 0.407382 0.936859 0.5
92 1 0.453241 0.925132 0.5
351 1 0.08339 0.961162 0.5
120 1 0.132995 0.952336 0.5
103 1 0.443146 0.970426 0.5
174 1 0.00529988 0.979007 0.5
394 1 0.117753 0.989184 0.5
144 1 0.195827 0.995149 0.5
42 1 0.264625 0.976876 0.5
40 1 0.313015 0.978108 0.5
313 1 0.362039 0.984681 0.5
8 1 0.40512 0.981099 0.5
281 1 0.544772 0.0251211 0.5
79 1 0.638941 0.0100063 0.5
100 1 0.688406 0.00790979 0.5
217 1 0.745461 0.0244986 0.5
198 1 0.868316 0.0123687 0.5
391 1 0.60187 0.0404153 0.5
190 1 0.654096 0.046766 0.5
171 1 0.70473 0.0418474 0.5
257 1 0.786444 0.034166 0.5
51 1 0.834788 0.0302603 0.5
220 1 0.90647 0.0435976 0.5
322 1 0.960011 0.0310855 0.5
163 1 0.571434 0.0595782 0.5
94 1 0.618021 0.0783586 0.5
213 1 0.746973 0.0625536 0.5
283 1 0.804284 0.0759723 0.5
215 1 0.877564 0.0772689 0.5
183 1 0.506303 0.102558 0.5
362 1 0.679669 0.0815543 0.5
285 1 0.941368 0.0814125 0.5
60 1 0.547768 0.117511 0.5
241 1 0.606978 0.116319 0.5
25 1 0.65069 0.128383 0.5
193 1 0.704453 0.12822 0.5
43 1 0.786086 0.118603 0.5
224 1 0.832641 0.106344 0.5
242 1 0.926274 0.117915 0.5
117 1 0.50237 0.154117 0.5
131 1 0.58132 0.152157 0.5
10 1 0.61944 0.151369 0.5
339 1 0.736167 0.149955 0.5
299 1 0.806491 0.150596 0.5
360 1 0.881498 0.14651 0.5
132 1 0.981581 0.14034 0.5
90 1 0.545262 0.160603 0.5
140 1 0.661208 0.170772 0.5
145 1 0.710671 0.181977 0.5
345 1 0.915673 0.159696 0.5
162 1 0.522829 0.204855 0.5
32 1 0.55956 0.207882 0.5
52 1 0.593406 0.191954 0.5
53 1 0.637254 0.201065 0.5
385 1 0.762649 0.184324 0.5
347 1 0.906826 0.209987 0.5
273 1 0.949582 0.205103 0.5
136 1 0.999494 0.200974 0.5
245 1 0.60438 0.232259 0.5
264 1 0.696718 0.232601 0.5
161 1 0.75413 0.222638 0.5
147 1 0.854535 0.216755 0.5
80 1 0.520809 0.262352 0.5
22 1 0.564324 0.253246 0.5
337 1 0.64672 0.240616 0.5
342 1 0.796975 0.240725 0.5
57 1 0.831263 0.258621 0.5
262 1 0.896375 0.255697 0.5
221 1 0.937431 0.258137 0.5
377 1 0.989125 0.249847 0.5
272 1 0.680139 0.283833 0.5
47 1 0.745393 0.272316 0.5
141 1 0.86744 0.289283 0.5
269 1 0.586548 0.293592 0.5
180 1 0.653633 0.312591 0.5
317 1 0.762521 0.311987 0.5
338 1 0.833989 0.303635 0.5
125 1 0.943513 0.305168 0.5
219 1 0.540191 0.332184 0.5
169 1 0.609989 0.324104 0.5
184 1 0.731449 0.335289 0.5
286 1 0.801394 0.327151 0.5
133 1 0.879264 0.336398 0.5
254 1 0.980154 0.320173 0.5
14 1 0.646994 0.366778 0.5
64 1 0.677862 0.346125 0.5
327 1 0.78096 0.365201 0.5
274 1 0.955162 0.361489 0.5
55 1 0.517193 0.372 0.5
243 1 0.560231 0.374391 0.5
357 1 0.704231 0.387393 0.5
106 1 0.737472 0.372739 0.5
364 1 0.892285 0.380936 0.5
48 1 0.993857 0.36987 0.5
124 1 0.626013 0.407087 0.5
26 1 0.686044 0.418122 0.5
196 1 0.775211 0.411985 0.5
76 1 0.939317 0.404672 0.5
287 1 0.994374 0.409021 0.5
16 1 0.564717 0.439088 0.5
237 1 0.6344 0.445194 0.5
93 1 0.849003 0.426674 0.5
236 1 0.963772 0.437142 0.5
230 1 0.515899 0.469911 0.5
376 1 0.672331 0.47235 0.5
110 1 0.72938 0.465035 0.5
121 1 0.77834 0.451684 0.5
239 1 0.827884 0.462171 0.5
127 1 0.916155 0.462156 0.5
395 1 0.995258 0.467068 0.5
210 1 0.552604 0.48751 0.5
19 1 0.631683 0.485005 0.5
4 1 0.767982 0.489933 0.5
66 1 0.860505 0.488661 0.5
88 1 0.951234 0.474693 0.5
222 1 0.661339 0.514332 0.5
384 1 0.72476 0.507513 0.5
309 1 0.790119 0.521004 0.5
116 1 0.824777 0.503425 0.5
170 1 0.906452 0.516032 0.5
344 1 0.954024 0.525906 0.5
356 1 0.513481 0.549126 0.5
197 1 0.558589 0.54157 0.5
112 1 0.61449 0.527649 0.5
372 1 0.698245 0.533306 0.5
168 1 0.863357 0.537078 0.5
226 1 0.997959 0.544644 0.5
290 1 0.590994 0.558903 0.5
343 1 0.667713 0.574277 0.5
5 1 0.788727 0.556809 0.5
7 1 0.842289 0.575519 0.5
30 1 0.913303 0.561741 0.5
173 1 0.962832 0.577388 0.5
229 1 0.617913 0.585723 0.5
390 1 0.71404 0.597201 0.5
374 1 0.759498 0.58359 0.5
207 1 0.802941 0.59272 0.5
49 1 0.884541 0.589582 0.5
188 1 0.503726 0.609291 0.5
248 1 0.598355 0.630692 0.5
143 1 0.694392 0.629428 0.5
263 1 0.841929 0.614502 0.5
157 1 0.918128 0.622041 0.5
199 1 0.988356 0.610308 0.5
240 1 0.545814 0.63803 0.5
58 1 0.636974 0.637627 0.5
312 1 0.866537 0.656079 0.5
400 1 0.950336 0.639384 0.5
206 1 0.9961 0.651387 0.5
69 1 0.51706 0.675042 0.5
33 1 0.554362 0.675379 0.5
164 1 0.682199 0.676144 0.5
113 1 0.725595 0.65799 0.5
78 1 0.816298 0.678411 0.5
148 1 0.947989 0.682975 0.5
45 1 0.592362 0.695931 0.5
238 1 0.640447 0.702232 0.5
298 1 0.74177 0.701845 0.5
251 1 0.891826 0.708302 0.5
34 1 0.987792 0.689021 0.5
284 1 0.516705 0.731635 0.5
231 1 0.575872 0.730446 0.5
256 1 0.785301 0.716539 0.5
225 1 0.966788 0.73324 0.5
65 1 0.6149 0.739274 0.5
359 1 0.672467 0.743056 0.5
167 1 0.716107 0.76068 0.5
379 1 0.758447 0.74505 0.5
324 1 0.575214 0.773722 0.5
138 1 0.75409 0.785018 0.5
20 1 0.791148 0.773226 0.5
292 1 0.859695 0.788212 0.5
179 1 0.895887 0.763835 0.5
358 1 0.937213 0.775625 0.5
152 1 0.519685 0.791592 0.5
228 1 0.605127 0.796585 0.5
27 1 0.65483 0.8067 0.5
165 1 0.727784 0.813808 0.5
261 1 0.910021 0.805546 0.5
321 1 0.967813 0.803541 0.5
367 1 0.502037 0.832432 0.5
265 1 0.692928 0.830339 0.5
260 1 0.751413 0.842097 0.5
244 1 0.785481 0.827258 0.5
306 1 0.826569 0.823612 0.5
348 1 0.865938 0.82793 0.5
6 1 0.545732 0.842215 0.5
159 1 0.649579 0.847484 0.5
107 1 0.8057 0.862006 0.5
252 1 0.953282 0.844269 0.5
352 1 0.997931 0.865475 0.5
392 1 0.523413 0.872255 0.5
276 1 0.604937 0.875703 0.5
333 1 0.651222 0.890366 0.5
35 1 0.772084 0.887889 0.5
12 1 0.856331 0.874515 0.5
314 1 0.907012 0.876383 0.5
11 1 0.962852 0.883268 0.5
294 1 0.50535 0.914865 0.5
23 1 0.595458 0.914568 0.5
54 1 0.693469 0.914211 0.5
87 1 0.727461 0.898323 0.5
332 1 0.869372 0.913741 0.5
56 1 0.529637 0.944628 0.5
331 1 0.785095 0.941312 0.5
105 1 0.834799 0.930877 0.5
316 1 0.907432 0.922865 0.5
37 1 0.944509 0.935702 0.5
95 1 0.562827 0.964704 0.5
218 1 0.636457 0.972573 0.5
304 1 0.676529 0.955991 0.5
368 1 0.735112 0.961098 0.5
383 1 0.810685 0.970205 0.5
119 1 0.868616 0.960852 0.5
166 1 0.967534 0.973223 0.5
293 1 0.93109 0.980765 0.5
