ITEM: TIMESTEP
100000
ITEM: NUMBER OF ATOMS
400
ITEM: BOX BOUNDS pp pp pp
0.0000000000000000e+00 2.0000000000000000e+01
0.0000000000000000e+00 2.0000000000000000e+01
-5.0000000000000000e-01 5.0000000000000000e-01
ITEM: ATOMS id type xs ys zs
151 1 0.0270794 0.033017 0.5
99 1 0.0777129 0.0216594 0.5
127 1 0.126712 0.0149533 0.5
279 1 0.190852 0.0127733 0.5
392 1 0.244445 0.0121988 0.5
198 1 0.293453 0.0106009 0.5
5 1 0.344684 0.0151528 0.5
334 1 0.392872 0.00992673 0.5
305 1 0.445142 0.0297681 0.5
284 1 0.159459 0.0492521 0.5
64 1 0.211636 0.0559732 0.5
117 1 0.267879 0.0566409 0.5
362 1 0.317525 0.0624187 0.5
283 1 0.373095 0.0656862 0.5
167 1 0.003627 0.0795415 0.5
368 1 0.0607168 0.0852621 0.5
342 1 0.113985 0.0701453 0.5
84 1 0.24114 0.0957487 0.5
7 1 0.421719 0.0732387 0.5
394 1 0.473504 0.073632 0.5
184 1 0.0905668 0.122492 0.5
358 1 0.138558 0.13055 0.5
74 1 0.176819 0.101037 0.5
197 1 0.29371 0.105129 0.5
285 1 0.34543 0.110881 0.5
73 1 0.394003 0.117028 0.5
79 1 0.444658 0.115489 0.5
187 1 0.496688 0.122308 0.5
372 1 0.0384083 0.133849 0.5
41 1 0.210236 0.134601 0.5
111 1 0.257544 0.142096 0.5
36 1 0.30453 0.157997 0.5
211 1 0.362535 0.156976 0.5
45 1 0.410711 0.163494 0.5
89 1 0.458569 0.162865 0.5
383 1 0.0078359 0.170043 0.5
71 1 0.0651495 0.174515 0.5
47 1 0.112997 0.16998 0.5
315 1 0.164921 0.174585 0.5
318 1 0.220837 0.187783 0.5
63 1 0.270473 0.189573 0.5
215 1 0.0306496 0.21342 0.5
3 1 0.0832848 0.22205 0.5
232 1 0.13669 0.218243 0.5
353 1 0.191318 0.228069 0.5
244 1 0.246399 0.229628 0.5
48 1 0.332945 0.2029 0.5
298 1 0.384006 0.202668 0.5
72 1 0.431461 0.215916 0.5
378 1 0.478445 0.216397 0.5
336 1 0.0576368 0.260056 0.5
108 1 0.110779 0.264396 0.5
273 1 0.300176 0.237963 0.5
351 1 0.347032 0.25197 0.5
226 1 0.405832 0.256291 0.5
309 1 0.460751 0.261439 0.5
214 1 0.0079411 0.271448 0.5
82 1 0.161958 0.26838 0.5
311 1 0.215148 0.271807 0.5
6 1 0.263388 0.277038 0.5
140 1 0.312461 0.293656 0.5
123 1 0.369987 0.296141 0.5
270 1 0.494074 0.298744 0.5
380 1 0.037266 0.307616 0.5
239 1 0.0874464 0.322126 0.5
136 1 0.136036 0.311667 0.5
221 1 0.195853 0.321879 0.5
295 1 0.242572 0.332283 0.5
54 1 0.433484 0.302296 0.5
354 1 0.0507431 0.35439 0.5
391 1 0.294088 0.337375 0.5
210 1 0.341898 0.339461 0.5
326 1 0.398099 0.337222 0.5
8 1 0.459357 0.343563 0.5
139 1 0.00145468 0.367207 0.5
189 1 0.102626 0.369014 0.5
348 1 0.155291 0.371379 0.5
132 1 0.207438 0.374869 0.5
340 1 0.257591 0.377925 0.5
52 1 0.311226 0.382932 0.5
373 1 0.371256 0.38219 0.5
376 1 0.427189 0.385723 0.5
122 1 0.48217 0.385028 0.5
94 1 0.0219575 0.410367 0.5
93 1 0.078381 0.411345 0.5
179 1 0.130828 0.414685 0.5
290 1 0.178739 0.422811 0.5
69 1 0.22798 0.417954 0.5
120 1 0.28141 0.428293 0.5
369 1 0.351258 0.426314 0.5
29 1 0.401556 0.430958 0.5
162 1 0.454167 0.42531 0.5
312 1 0.039242 0.455579 0.5
21 1 0.10268 0.461821 0.5
166 1 0.147807 0.461758 0.5
277 1 0.0651848 0.49667 0.5
293 1 0.201596 0.468348 0.5
379 1 0.25368 0.470755 0.5
13 1 0.30568 0.468536 0.5
395 1 0.362054 0.481179 0.5
148 1 0.42674 0.473351 0.5
24 1 0.475698 0.473767 0.5
9 1 0.017011 0.506415 0.5
85 1 0.122624 0.506032 0.5
168 1 0.172245 0.506899 0.5
389 1 0.226844 0.51485 0.5
146 1 0.27941 0.516571 0.5
46 1 0.335686 0.523725 0.5
294 1 0.397402 0.520135 0.5
153 1 0.449351 0.514813 0.5
115 1 0.0423094 0.553459 0.5
397 1 0.0957726 0.550389 0.5
206 1 0.14502 0.548706 0.5
4 1 0.195096 0.552437 0.5
266 1 0.246278 0.560485 0.5
183 1 0.301035 0.559772 0.5
205 1 0.369219 0.560795 0.5
157 1 0.428831 0.563513 0.5
261 1 0.481053 0.56381 0.5
201 1 0.0183786 0.597872 0.5
229 1 0.0714468 0.598164 0.5
301 1 0.133685 0.595482 0.5
238 1 0.18208 0.597179 0.5
142 1 0.230783 0.605775 0.5
347 1 0.278674 0.607656 0.5
251 1 0.342196 0.600649 0.5
375 1 0.399818 0.60587 0.5
23 1 0.4524 0.607998 0.5
328 1 0.0372692 0.643228 0.5
371 1 0.101961 0.641321 0.5
98 1 0.151873 0.63925 0.5
364 1 0.202117 0.644858 0.5
92 1 0.249673 0.660144 0.5
57 1 0.315785 0.642206 0.5
262 1 0.376356 0.653681 0.5
155 1 0.424893 0.645558 0.5
172 1 0.473246 0.652052 0.5
219 1 0.000629588 0.681068 0.5
208 1 0.0679372 0.692141 0.5
253 1 0.120636 0.689537 0.5
77 1 0.182321 0.694343 0.5
174 1 0.289879 0.685634 0.5
173 1 0.346535 0.69349 0.5
158 1 0.397192 0.699933 0.5
194 1 0.444989 0.689595 0.5
335 1 0.498248 0.693394 0.5
2 1 0.0322488 0.728277 0.5
228 1 0.228587 0.70567 0.5
357 1 0.268951 0.731609 0.5
102 1 0.0913908 0.734882 0.5
345 1 0.13977 0.745125 0.5
254 1 0.19145 0.740573 0.5
333 1 0.317374 0.739615 0.5
241 1 0.367497 0.750924 0.5
170 1 0.419443 0.740612 0.5
192 1 0.467502 0.733356 0.5
374 1 0.00744494 0.782879 0.5
109 1 0.0572386 0.784354 0.5
363 1 0.10583 0.785235 0.5
175 1 0.162901 0.789607 0.5
39 1 0.230297 0.7737 0.5
307 1 0.285222 0.77896 0.5
152 1 0.338986 0.790628 0.5
276 1 0.406899 0.786689 0.5
280 1 0.465215 0.786634 0.5
398 1 0.0267986 0.828901 0.5
80 1 0.0753324 0.831651 0.5
176 1 0.131967 0.829513 0.5
346 1 0.189671 0.829602 0.5
78 1 0.252863 0.8182 0.5
230 1 0.300282 0.829468 0.5
349 1 0.373586 0.82177 0.5
332 1 0.33819 0.86495 0.5
256 1 0.41384 0.850239 0.5
291 1 0.460239 0.856896 0.5
19 1 0.0471136 0.881879 0.5
160 1 0.109895 0.877912 0.5
130 1 0.15862 0.869826 0.5
393 1 0.218889 0.873383 0.5
316 1 0.268053 0.868218 0.5
246 1 0.38086 0.894654 0.5
388 1 0.49428 0.895287 0.5
51 1 0.010488 0.925925 0.5
274 1 0.0662223 0.925821 0.5
240 1 0.121793 0.923202 0.5
70 1 0.188361 0.916469 0.5
28 1 0.236654 0.922598 0.5
137 1 0.286527 0.912279 0.5
330 1 0.334385 0.914814 0.5
213 1 0.434424 0.90045 0.5
135 1 0.16193 0.966169 0.5
134 1 0.213158 0.965295 0.5
147 1 0.262523 0.965382 0.5
50 1 0.382075 0.951078 0.5
367 1 0.46429 0.942033 0.5
144 1 0.00289268 0.988277 0.5
275 1 0.0535997 0.97553 0.5
269 1 0.106919 0.971472 0.5
350 1 0.316812 0.967333 0.5
250 1 0.424977 0.973695 0.5
204 1 0.472911 0.987984 0.5
313 1 0.501082 0.0303138 0.5
245 1 0.550258 0.0327505 0.5
304 1 0.597717 0.030004 0.5
237 1 0.675508 0.0317001 0.5
181 1 0.77806 0.00419585 0.5
60 1 0.821244 0.0323767 0.5
96 1 0.87209 0.0206425 0.5
83 1 0.975782 0.0279478 0.5
159 1 0.730566 0.0517761 0.5
38 1 0.787317 0.0642539 0.5
121 1 0.917866 0.0408821 0.5
34 1 0.52547 0.0772759 0.5
165 1 0.575828 0.0804003 0.5
303 1 0.627762 0.0678009 0.5
252 1 0.689376 0.0770812 0.5
202 1 0.852377 0.0751259 0.5
282 1 0.909463 0.0897091 0.5
209 1 0.955376 0.0769613 0.5
15 1 0.548307 0.123331 0.5
243 1 0.602469 0.126233 0.5
31 1 0.653944 0.119796 0.5
124 1 0.709237 0.12568 0.5
324 1 0.765027 0.110533 0.5
360 1 0.822624 0.112837 0.5
255 1 0.870703 0.121703 0.5
236 1 0.942049 0.125601 0.5
118 1 0.988668 0.126028 0.5
164 1 0.519414 0.163342 0.5
196 1 0.574622 0.164988 0.5
235 1 0.679118 0.1638 0.5
278 1 0.746508 0.161559 0.5
133 1 0.799292 0.159444 0.5
40 1 0.908444 0.158519 0.5
14 1 0.628243 0.170114 0.5
156 1 0.715483 0.198877 0.5
317 1 0.849006 0.17158 0.5
207 1 0.952226 0.177466 0.5
220 1 0.539287 0.214767 0.5
352 1 0.594597 0.214484 0.5
386 1 0.661079 0.211807 0.5
149 1 0.769781 0.206332 0.5
112 1 0.811627 0.219491 0.5
289 1 0.884056 0.210814 0.5
49 1 0.93103 0.222671 0.5
128 1 0.977055 0.22732 0.5
377 1 0.510782 0.255921 0.5
224 1 0.563135 0.265347 0.5
119 1 0.630766 0.247042 0.5
337 1 0.691142 0.253233 0.5
100 1 0.73836 0.247172 0.5
396 1 0.786261 0.260289 0.5
234 1 0.854127 0.250049 0.5
43 1 0.897802 0.266654 0.5
199 1 0.948734 0.265979 0.5
329 1 0.608679 0.291077 0.5
344 1 0.65675 0.287492 0.5
105 1 0.840576 0.295769 0.5
188 1 0.541911 0.307194 0.5
308 1 0.585428 0.331617 0.5
400 1 0.715651 0.301447 0.5
126 1 0.768933 0.312054 0.5
10 1 0.884129 0.321876 0.5
97 1 0.935343 0.316218 0.5
310 1 0.987059 0.318894 0.5
227 1 0.510183 0.345378 0.5
190 1 0.636318 0.337731 0.5
233 1 0.687607 0.341802 0.5
223 1 0.736841 0.355146 0.5
381 1 0.801509 0.346391 0.5
65 1 0.847822 0.358426 0.5
343 1 0.906385 0.362424 0.5
26 1 0.955546 0.360762 0.5
169 1 0.538431 0.381376 0.5
25 1 0.590064 0.381835 0.5
59 1 0.65077 0.390338 0.5
288 1 0.700818 0.392334 0.5
106 1 0.769859 0.391744 0.5
101 1 0.504983 0.42817 0.5
325 1 0.556075 0.431024 0.5
267 1 0.727464 0.430001 0.5
35 1 0.818831 0.401701 0.5
365 1 0.873597 0.40268 0.5
292 1 0.92199 0.410174 0.5
338 1 0.970598 0.405464 0.5
182 1 0.608165 0.433833 0.5
212 1 0.66831 0.437347 0.5
302 1 0.786645 0.435339 0.5
95 1 0.830388 0.449407 0.5
66 1 0.885913 0.447399 0.5
76 1 0.942665 0.459749 0.5
281 1 0.987748 0.449814 0.5
272 1 0.531363 0.470562 0.5
56 1 0.586121 0.478443 0.5
287 1 0.636083 0.471271 0.5
62 1 0.701454 0.477376 0.5
387 1 0.754058 0.473655 0.5
322 1 0.79958 0.489366 0.5
300 1 0.854188 0.490603 0.5
88 1 0.90291 0.497488 0.5
299 1 0.505798 0.520225 0.5
247 1 0.554373 0.519893 0.5
107 1 0.612941 0.523633 0.5
129 1 0.659861 0.516581 0.5
171 1 0.709262 0.527546 0.5
320 1 0.7594 0.529957 0.5
11 1 0.962986 0.511485 0.5
355 1 0.531198 0.564402 0.5
32 1 0.817967 0.533906 0.5
306 1 0.874992 0.537507 0.5
67 1 0.927166 0.548635 0.5
366 1 0.99127 0.550391 0.5
163 1 0.581658 0.566813 0.5
150 1 0.631878 0.576117 0.5
154 1 0.68228 0.571897 0.5
193 1 0.741184 0.574017 0.5
55 1 0.789299 0.578614 0.5
321 1 0.840085 0.580891 0.5
113 1 0.894871 0.586859 0.5
297 1 0.949699 0.59494 0.5
385 1 0.505881 0.609756 0.5
384 1 0.558143 0.606747 0.5
104 1 0.607209 0.61792 0.5
116 1 0.656591 0.615507 0.5
327 1 0.711367 0.613526 0.5
242 1 0.764629 0.621498 0.5
249 1 0.816311 0.63008 0.5
27 1 0.527657 0.654294 0.5
271 1 0.578319 0.655 0.5
81 1 0.623558 0.664598 0.5
222 1 0.671975 0.661081 0.5
22 1 0.728622 0.664953 0.5
138 1 0.863088 0.636727 0.5
42 1 0.912072 0.633616 0.5
268 1 0.975012 0.641371 0.5
110 1 0.547461 0.697993 0.5
185 1 0.779758 0.668905 0.5
44 1 0.842916 0.68571 0.5
17 1 0.893998 0.69381 0.5
323 1 0.943919 0.682633 0.5
178 1 0.596764 0.706273 0.5
257 1 0.643735 0.719125 0.5
16 1 0.697191 0.706318 0.5
191 1 0.744845 0.712561 0.5
103 1 0.796642 0.726391 0.5
68 1 0.516638 0.746343 0.5
217 1 0.572933 0.751083 0.5
216 1 0.629096 0.764007 0.5
264 1 0.677172 0.760429 0.5
177 1 0.725559 0.756777 0.5
143 1 0.847514 0.734625 0.5
30 1 0.9169 0.741744 0.5
114 1 0.982014 0.733362 0.5
58 1 0.771107 0.768732 0.5
33 1 0.818236 0.776906 0.5
382 1 0.877721 0.771571 0.5
91 1 0.955496 0.777296 0.5
87 1 0.509709 0.801897 0.5
399 1 0.55643 0.807533 0.5
361 1 0.605195 0.807788 0.5
370 1 0.653179 0.806253 0.5
61 1 0.708322 0.810261 0.5
161 1 0.770189 0.817308 0.5
18 1 0.844098 0.825935 0.5
37 1 0.913527 0.802617 0.5
260 1 0.979885 0.820458 0.5
359 1 0.527676 0.849891 0.5
141 1 0.582653 0.850021 0.5
75 1 0.629474 0.852603 0.5
390 1 0.679107 0.851334 0.5
125 1 0.743043 0.856217 0.5
145 1 0.8031 0.854566 0.5
53 1 0.88869 0.850801 0.5
131 1 0.934714 0.843965 0.5
341 1 0.552607 0.893475 0.5
180 1 0.600889 0.898203 0.5
90 1 0.700887 0.899006 0.5
195 1 0.843133 0.88205 0.5
314 1 0.950377 0.896484 0.5
225 1 0.993268 0.86782 0.5
263 1 0.653923 0.903671 0.5
20 1 0.74742 0.907921 0.5
248 1 0.801815 0.92169 0.5
296 1 0.88797 0.902007 0.5
265 1 0.515154 0.939512 0.5
286 1 0.567 0.940834 0.5
259 1 0.613484 0.94494 0.5
231 1 0.667664 0.952961 0.5
331 1 0.714733 0.949176 0.5
1 1 0.762294 0.956864 0.5
186 1 0.851979 0.93407 0.5
12 1 0.921379 0.942028 0.5
258 1 0.967559 0.948194 0.5
86 1 0.524231 0.98568 0.5
356 1 0.576436 0.986792 0.5
203 1 0.634877 0.99203 0.5
218 1 0.728491 0.996869 0.5
339 1 0.829995 0.979255 0.5
319 1 0.885924 0.975764 0.5
200 1 0.931053 0.993689 0.5
