ITEM: TIMESTEP
100000
ITEM: NUMBER OF ATOMS
400
ITEM: BOX BOUNDS pp pp pp
0.0000000000000000e+00 2.1081851067789195e+01
0.0000000000000000e+00 2.1081851067789195e+01
-5.2704627669472992e-01 5.2704627669472992e-01
ITEM: ATOMS id type xs ys zs
93 1 0.0571995 0.118599 0.5
85 1 0.0756956 0.16007 0.5
384 1 0.0139116 0.0931086 0.5
367 1 0.0469396 0.0192726 0.5
42 1 0.399198 0.368955 0.5
316 1 0.392764 0.498468 0.5
129 1 0.400401 0.415161 0.5
97 1 0.192579 0.0837418 0.5
362 1 0.256558 0.0181355 0.5
393 1 0.042209 0.200028 0.5
127 1 0.336645 0.132066 0.5
170 1 0.4783 0.0668153 0.5
21 1 0.364629 0.0057486 0.5
142 1 0.181287 0.394651 0.5
36 1 0.0718309 0.0705127 0.5
29 1 0.221317 0.0480283 0.5
253 1 0.443565 0.491133 0.5
28 1 0.172263 0.0318734 0.5
3 1 0.365889 0.0905036 0.5
140 1 0.143171 0.0769373 0.5
191 1 0.231454 0.174726 0.5
359 1 0.277252 0.492032 0.5
344 1 0.258178 0.0767844 0.5
114 1 0.329267 0.48174 0.5
287 1 0.398134 0.131287 0.5
94 1 0.392864 0.0533638 0.5
195 1 0.206843 0.12796 0.5
241 1 0.268834 0.150637 0.5
220 1 0.370604 0.165977 0.5
99 1 0.344069 0.0433381 0.5
347 1 0.319291 0.0894168 0.5
288 1 0.411961 0.19335 0.5
119 1 0.470063 0.113258 0.5
351 1 0.456337 0.379666 0.5
300 1 0.103813 0.108886 0.5
88 1 0.149304 0.132326 0.5
239 1 0.117442 0.179168 0.5
181 1 0.261302 0.216269 0.5
380 1 0.311249 0.2194 0.5
78 1 0.367838 0.212721 0.5
332 1 0.0865261 0.215142 0.5
337 1 0.173136 0.170248 0.5
307 1 0.321035 0.174568 0.5
83 1 0.127656 0.484283 0.5
184 1 0.0215963 0.150465 0.5
352 1 0.152096 0.438266 0.5
72 1 0.156312 0.214199 0.5
268 1 0.150529 0.308318 0.5
66 1 0.203996 0.226389 0.5
8 1 0.442867 0.14724 0.5
286 1 0.490367 0.229201 0.5
35 1 0.489919 0.275446 0.5
247 1 0.127673 0.251137 0.5
150 1 0.064181 0.286454 0.5
124 1 0.235764 0.263988 0.5
296 1 0.444517 0.23843 0.5
365 1 0.475509 0.185845 0.5
132 1 0.201308 0.44944 0.5
44 1 0.0250654 0.256377 0.5
113 1 0.00950966 0.38134 0.5
308 1 0.176483 0.261973 0.5
400 1 0.280315 0.261014 0.5
176 1 0.154979 0.35644 0.5
273 1 0.200343 0.309338 0.5
215 1 0.342712 0.257058 0.5
151 1 0.435296 0.0381498 0.5
193 1 0.48163 0.457128 0.5
31 1 0.0407972 0.344003 0.5
50 1 0.0869173 0.34875 0.5
398 1 0.33083 0.305032 0.5
200 1 0.107207 0.297959 0.5
249 1 0.293284 0.331396 0.5
216 1 0.331894 0.356953 0.5
251 1 0.441408 0.285706 0.5
148 1 0.492296 0.347327 0.5
194 1 0.370675 0.448498 0.5
86 1 0.320059 0.421392 0.5
175 1 0.439475 0.442546 0.5
17 1 0.0599725 0.399002 0.5
297 1 0.113002 0.386526 0.5
197 1 0.358153 0.395463 0.5
110 1 0.207702 0.354799 0.5
356 1 0.017318 0.430747 0.5
394 1 0.258101 0.360442 0.5
65 1 0.0941849 0.445241 0.5
284 1 0.245624 0.315251 0.5
98 1 0.389062 0.254302 0.5
130 1 0.442258 0.333011 0.5
7 1 0.254996 0.451358 0.5
382 1 0.229073 0.404642 0.5
329 1 0.273685 0.407357 0.5
374 1 0.376862 0.324871 0.5
234 1 0.294521 0.0475242 0.5
92 1 0.429784 0.0896143 0.5
48 1 0.00985632 0.304312 0.5
163 1 0.0113375 0.048642 0.5
339 1 0.110833 0.0433393 0.5
115 1 0.0448834 0.469507 0.5
182 1 0.00812715 0.495546 0.5
306 1 0.182231 0.498343 0.5
5 1 0.207003 0.000110905 0.5
169 1 0.310301 0.00298019 0.5
171 1 0.19174 0.900167 0.5
161 1 0.0394957 0.529934 0.5
9 1 0.461465 0.908214 0.5
133 1 0.38667 0.950228 0.5
258 1 0.494912 0.503984 0.5
363 1 0.018038 0.973714 0.5
212 1 0.439336 0.76335 0.5
327 1 0.0751559 0.589244 0.5
55 1 0.0228723 0.575129 0.5
123 1 0.47409 0.547201 0.5
81 1 0.459944 0.994071 0.5
13 1 0.430535 0.860937 0.5
27 1 0.436804 0.954533 0.5
302 1 0.490341 0.953507 0.5
37 1 0.161784 0.552162 0.5
224 1 0.337184 0.960271 0.5
275 1 0.105512 0.990405 0.5
240 1 0.497391 0.588695 0.5
342 1 0.41306 0.999848 0.5
378 1 0.403468 0.898986 0.5
223 1 0.024528 0.619749 0.5
102 1 0.121238 0.536697 0.5
180 1 0.170198 0.597428 0.5
137 1 0.213591 0.569513 0.5
160 1 0.250668 0.970502 0.5
38 1 0.309516 0.527351 0.5
219 1 0.429435 0.536227 0.5
117 1 0.238396 0.916401 0.5
159 1 0.00955866 0.865837 0.5
348 1 0.266834 0.574248 0.5
277 1 0.46657 0.812451 0.5
177 1 0.49504 0.687704 0.5
32 1 0.287615 0.888116 0.5
350 1 0.0832317 0.686285 0.5
260 1 0.215337 0.657608 0.5
322 1 0.232149 0.51213 0.5
11 1 0.316977 0.57976 0.5
232 1 0.395595 0.565946 0.5
293 1 0.388281 0.856298 0.5
396 1 0.0357403 0.765432 0.5
87 1 0.0247316 0.821778 0.5
262 1 0.0628679 0.646779 0.5
164 1 0.119245 0.584362 0.5
285 1 0.309883 0.628461 0.5
209 1 0.372407 0.61222 0.5
64 1 0.417895 0.626374 0.5
204 1 0.407171 0.815498 0.5
315 1 0.358569 0.531001 0.5
77 1 0.0601975 0.726562 0.5
256 1 0.114211 0.635308 0.5
366 1 0.23692 0.610275 0.5
388 1 0.387731 0.665726 0.5
381 1 0.111635 0.791146 0.5
266 1 0.10231 0.74084 0.5
274 1 0.130218 0.682967 0.5
252 1 0.271306 0.648533 0.5
147 1 0.299025 0.686704 0.5
12 1 0.343866 0.65767 0.5
56 1 0.0217159 0.686884 0.5
386 1 0.295107 0.93642 0.5
154 1 0.15524 0.728956 0.5
233 1 0.168681 0.644827 0.5
46 1 0.243484 0.702203 0.5
108 1 0.365967 0.729179 0.5
47 1 0.483184 0.764485 0.5
144 1 0.239948 0.864112 0.5
107 1 0.0631228 0.866717 0.5
20 1 0.159627 0.7748 0.5
162 1 0.200184 0.73743 0.5
136 1 0.178407 0.6897 0.5
280 1 0.453259 0.670569 0.5
321 1 0.44635 0.583892 0.5
120 1 0.109469 0.850532 0.5
172 1 0.0749567 0.818189 0.5
225 1 0.210531 0.785693 0.5
206 1 0.288909 0.733762 0.5
324 1 0.41279 0.709798 0.5
389 1 0.038435 0.9058 0.5
353 1 0.151573 0.83369 0.5
304 1 0.297177 0.787217 0.5
199 1 0.254997 0.763972 0.5
143 1 0.391976 0.772029 0.5
272 1 0.456278 0.719027 0.5
57 1 0.350809 0.821635 0.5
68 1 0.203112 0.951381 0.5
79 1 0.129965 0.897979 0.5
104 1 0.151801 0.984179 0.5
372 1 0.196931 0.829379 0.5
301 1 0.252645 0.819106 0.5
226 1 0.33985 0.770804 0.5
208 1 0.303239 0.838164 0.5
122 1 0.0864512 0.916044 0.5
121 1 0.0672465 0.962762 0.5
16 1 0.158811 0.935061 0.5
157 1 0.337224 0.906089 0.5
19 1 0.481492 0.866753 0.5
292 1 0.0803691 0.508499 0.5
298 1 0.949397 0.0966297 0.5
4 1 0.767757 0.0617647 0.5
96 1 0.903839 0.487882 0.5
311 1 0.696592 0.129552 0.5
63 1 0.982676 0.0082051 0.5
112 1 0.787257 0.0176912 0.5
375 1 0.656679 0.502956 0.5
278 1 0.903071 0.408093 0.5
101 1 0.695597 0.0143137 0.5
345 1 0.873121 0.0946511 0.5
14 1 0.79129 0.192446 0.5
245 1 0.940315 0.159973 0.5
128 1 0.519881 0.194564 0.5
333 1 0.561227 0.447118 0.5
305 1 0.672051 0.0702847 0.5
243 1 0.78657 0.143208 0.5
188 1 0.837632 0.127248 0.5
186 1 0.909753 0.123572 0.5
217 1 0.649694 0.0268472 0.5
230 1 0.626246 0.0639609 0.5
244 1 0.645809 0.109568 0.5
314 1 0.881244 0.158115 0.5
254 1 0.876667 0.202446 0.5
325 1 0.515134 0.0989908 0.5
295 1 0.525553 0.0551228 0.5
250 1 0.603575 0.127066 0.5
187 1 0.74313 0.176776 0.5
135 1 0.782429 0.269965 0.5
174 1 0.834536 0.173886 0.5
80 1 0.690441 0.466021 0.5
61 1 0.91704 0.0635999 0.5
131 1 0.616653 0.172599 0.5
70 1 0.655645 0.204886 0.5
89 1 0.658815 0.158518 0.5
320 1 0.836473 0.272867 0.5
39 1 0.82964 0.226243 0.5
203 1 0.974813 0.244314 0.5
246 1 0.96237 0.0495306 0.5
125 1 0.563705 0.105685 0.5
166 1 0.563819 0.151252 0.5
340 1 0.699091 0.228703 0.5
338 1 0.928941 0.270171 0.5
371 1 0.665785 0.258939 0.5
76 1 0.697695 0.18477 0.5
116 1 0.762689 0.315741 0.5
192 1 0.877144 0.301832 0.5
326 1 0.965377 0.292726 0.5
303 1 0.75953 0.459525 0.5
317 1 0.92464 0.218648 0.5
270 1 0.580945 0.200054 0.5
189 1 0.725633 0.273992 0.5
336 1 0.741824 0.106044 0.5
153 1 0.752148 0.230836 0.5
282 1 0.81475 0.315489 0.5
178 1 0.830978 0.056385 0.5
40 1 0.721302 0.0590845 0.5
259 1 0.616574 0.227821 0.5
91 1 0.717643 0.339937 0.5
355 1 0.876784 0.250145 0.5
343 1 0.922153 0.322476 0.5
22 1 0.573252 0.27277 0.5
387 1 0.619268 0.272758 0.5
261 1 0.748321 0.376954 0.5
237 1 0.797649 0.364408 0.5
385 1 0.893978 0.359638 0.5
360 1 0.974281 0.341524 0.5
190 1 0.878746 0.0365971 0.5
6 1 0.583921 0.370369 0.5
323 1 0.534645 0.297115 0.5
53 1 0.686569 0.302596 0.5
228 1 0.846479 0.352231 0.5
391 1 0.825558 0.453926 0.5
361 1 0.927211 0.448684 0.5
214 1 0.597029 0.314011 0.5
60 1 0.683732 0.375759 0.5
10 1 0.632961 0.451775 0.5
84 1 0.668717 0.42346 0.5
45 1 0.780571 0.411145 0.5
279 1 0.85227 0.410116 0.5
369 1 0.937795 0.37308 0.5
15 1 0.50656 0.147824 0.5
376 1 0.600155 0.421455 0.5
294 1 0.644619 0.337648 0.5
2 1 0.631982 0.385762 0.5
218 1 0.872298 0.45579 0.5
41 1 0.549193 0.401492 0.5
283 1 0.600173 0.487498 0.5
330 1 0.72022 0.430474 0.5
183 1 0.799417 0.498836 0.5
109 1 0.98025 0.19809 0.5
58 1 0.550527 0.339697 0.5
349 1 0.97781 0.134542 0.5
390 1 0.962415 0.416563 0.5
231 1 0.794495 0.0969027 0.5
33 1 0.854092 0.498363 0.5
281 1 0.924676 0.0146147 0.5
43 1 0.578184 0.0456997 0.5
168 1 0.538861 0.241922 0.5
49 1 0.977835 0.461179 0.5
59 1 0.500186 0.41428 0.5
155 1 0.551352 0.00988786 0.5
312 1 0.505688 0.0125809 0.5
397 1 0.546026 0.491338 0.5
185 1 0.535045 0.550212 0.5
152 1 0.895992 0.621185 0.5
111 1 0.728845 0.550403 0.5
248 1 0.551734 0.603848 0.5
126 1 0.53361 0.96757 0.5
395 1 0.875423 0.985701 0.5
71 1 0.974813 0.685966 0.5
373 1 0.652849 0.596513 0.5
73 1 0.68287 0.545358 0.5
51 1 0.582126 0.729202 0.5
30 1 0.695293 0.636878 0.5
392 1 0.781746 0.551328 0.5
276 1 0.52272 0.829322 0.5
207 1 0.700811 0.590292 0.5
221 1 0.738783 0.659843 0.5
134 1 0.826322 0.538614 0.5
267 1 0.525757 0.733065 0.5
358 1 0.99319 0.789608 0.5
265 1 0.592768 0.634112 0.5
24 1 0.639802 0.645732 0.5
319 1 0.667342 0.745644 0.5
149 1 0.808239 0.636715 0.5
377 1 0.843672 0.667362 0.5
26 1 0.80766 0.58937 0.5
165 1 0.863741 0.575353 0.5
74 1 0.551055 0.649914 0.5
75 1 0.598727 0.682489 0.5
289 1 0.661041 0.798095 0.5
210 1 0.714461 0.736829 0.5
357 1 0.886994 0.688762 0.5
158 1 0.912723 0.725889 0.5
331 1 0.847062 0.618505 0.5
213 1 0.888019 0.786018 0.5
179 1 0.551074 0.695712 0.5
299 1 0.66796 0.69429 0.5
370 1 0.782779 0.686294 0.5
271 1 0.819823 0.712699 0.5
290 1 0.936724 0.763841 0.5
313 1 0.926587 0.583955 0.5
95 1 0.627533 0.717169 0.5
139 1 0.59964 0.807495 0.5
318 1 0.75669 0.724037 0.5
156 1 0.863494 0.739106 0.5
100 1 0.797069 0.770029 0.5
82 1 0.619901 0.763089 0.5
235 1 0.635332 0.846151 0.5
141 1 0.706985 0.786818 0.5
25 1 0.813521 0.815165 0.5
145 1 0.742938 0.815804 0.5
67 1 0.778742 0.848859 0.5
1 1 0.929802 0.806806 0.5
201 1 0.566433 0.772674 0.5
138 1 0.694708 0.919301 0.5
222 1 0.785738 0.969254 0.5
238 1 0.903346 0.848999 0.5
255 1 0.918389 0.899352 0.5
242 1 0.538961 0.877527 0.5
334 1 0.715857 0.879437 0.5
52 1 0.749207 0.767535 0.5
383 1 0.866792 0.889673 0.5
310 1 0.824804 0.860619 0.5
354 1 0.985158 0.642803 0.5
105 1 0.581376 0.856398 0.5
236 1 0.699488 0.83352 0.5
205 1 0.670611 0.879791 0.5
291 1 0.774235 0.89944 0.5
18 1 0.742488 0.98933 0.5
106 1 0.922019 0.949099 0.5
118 1 0.97732 0.540665 0.5
257 1 0.755868 0.508211 0.5
90 1 0.739497 0.933809 0.5
264 1 0.6379 0.549133 0.5
263 1 0.872012 0.941971 0.5
227 1 0.970539 0.961742 0.5
167 1 0.987876 0.918983 0.5
173 1 0.897456 0.543673 0.5
309 1 0.843702 0.781629 0.5
103 1 0.507608 0.909098 0.5
198 1 0.550895 0.924597 0.5
34 1 0.817695 0.931237 0.5
335 1 0.745287 0.615099 0.5
346 1 0.507566 0.640408 0.5
364 1 0.647056 0.916604 0.5
202 1 0.607482 0.585325 0.5
211 1 0.970806 0.830632 0.5
196 1 0.583818 0.547156 0.5
23 1 0.960611 0.877255 0.5
146 1 0.929791 0.659795 0.5
368 1 0.607589 0.895192 0.5
62 1 0.637747 0.9754 0.5
341 1 0.681571 0.966246 0.5
229 1 0.862321 0.822995 0.5
399 1 0.978637 0.59482 0.5
379 1 0.996682 0.728511 0.5
69 1 0.829704 0.998001 0.5
328 1 0.948919 0.505613 0.5
54 1 0.71082 0.511434 0.5
269 1 0.598771 0.997241 0.5
998797 0.5
