ITEM: TIMESTEP
100000
ITEM: NUMBER OF ATOMS
400
ITEM: BOX BOUNDS pp pp pp
0.0000000000000000e+00 2.8284271247461902e+01
0.0000000000000000e+00 2.8284271247461902e+01
-7.0710678118654757e-01 7.0710678118654757e-01
ITEM: ATOMS id type xs ys zs
74 1 0.0272921 0.0475074 0.5
20 1 0.0668485 0.451001 0.5
211 1 0.147432 0.0313146 0.5
344 1 0.0660435 0.383053 0.5
206 1 0.46624 0.39894 0.5
9 1 0.0805786 0.175013 0.5
175 1 0.431588 0.263366 0.5
201 1 0.0201083 0.174459 0.5
293 1 0.104525 0.0136937 0.5
217 1 0.0990983 0.0659201 0.5
90 1 0.0488701 0.211583 0.5
124 1 0.18544 0.0497519 0.5
121 1 0.424236 0.190305 0.5
184 1 0.131951 0.144477 0.5
22 1 0.034397 0.274233 0.5
102 1 0.322284 0.105572 0.5
69 1 0.142621 0.0680844 0.5
198 1 0.0512505 0.0198563 0.5
221 1 0.263394 0.161141 0.5
301 1 0.371489 0.168175 0.5
360 1 0.118711 0.257601 0.5
218 1 0.147982 0.181457 0.5
254 1 0.0596937 0.247735 0.5
192 1 0.422062 0.0140401 0.5
203 1 0.20148 0.180479 0.5
25 1 0.188664 0.0914109 0.5
230 1 0.120621 0.102691 0.5
116 1 0.485951 0.105238 0.5
285 1 0.269252 0.0594945 0.5
272 1 0.382856 0.0233968 0.5
395 1 0.482536 0.244835 0.5
205 1 0.132314 0.391039 0.5
148 1 0.36506 0.312325 0.5
4 1 0.305349 0.0463829 0.5
358 1 0.275387 0.207545 0.5
33 1 0.381716 0.237103 0.5
183 1 0.143887 0.227249 0.5
52 1 0.45217 0.49372 0.5
370 1 0.209943 0.299364 0.5
182 1 0.29048 0.266848 0.5
94 1 0.339267 0.0355257 0.5
55 1 0.217167 0.0332444 0.5
332 1 0.356958 0.358832 0.5
114 1 0.35558 0.0925354 0.5
176 1 0.345425 0.236932 0.5
296 1 0.315104 0.170319 0.5
63 1 0.0841199 0.285862 0.5
131 1 0.162172 0.282344 0.5
129 1 0.169111 0.409085 0.5
394 1 0.256122 0.322901 0.5
49 1 0.370245 0.131182 0.5
113 1 0.00683877 0.347879 0.5
11 1 0.183694 0.250535 0.5
72 1 0.396624 0.374299 0.5
105 1 0.419659 0.0582258 0.5
295 1 0.409569 0.157071 0.5
356 1 0.154974 0.476448 0.5
21 1 0.115588 0.310669 0.5
143 1 0.294562 0.304742 0.5
299 1 0.486082 0.141782 0.5
200 1 0.219799 0.354069 0.5
376 1 0.256375 0.379015 0.5
305 1 0.423922 0.320111 0.5
251 1 0.275559 0.468156 0.5
245 1 0.458167 0.457817 0.5
258 1 0.255183 0.277069 0.5
122 1 0.0346216 0.476534 0.5
103 1 0.223559 0.476199 0.5
223 1 0.0660069 0.496988 0.5
31 1 0.229469 0.247738 0.5
226 1 0.0206251 0.316677 0.5
38 1 0.432019 0.410542 0.5
81 1 0.216349 0.443165 0.5
379 1 0.478412 0.302451 0.5
109 1 0.309405 0.43913 0.5
388 1 0.393595 0.471988 0.5
335 1 0.219327 0.209999 0.5
178 1 0.0640988 0.0888497 0.5
374 1 0.0247889 0.0852984 0.5
275 1 0.234592 0.129202 0.5
352 1 0.113886 0.427985 0.5
255 1 0.436235 0.36709 0.5
362 1 0.374357 0.403113 0.5
273 1 0.0624871 0.313438 0.5
357 1 0.289088 0.338169 0.5
29 1 0.319315 0.372834 0.5
256 1 0.0124999 0.451633 0.5
367 1 0.386382 0.337999 0.5
304 1 0.148961 0.348826 0.5
309 1 0.463539 0.0660622 0.5
172 1 0.112808 0.349013 0.5
333 1 0.178086 0.450469 0.5
8 1 0.208659 0.401064 0.5
240 1 0.0252006 0.137869 0.5
390 1 0.0824203 0.12384 0.5
222 1 0.268859 0.0230174 0.5
64 1 0.450355 0.141592 0.5
321 1 0.0219407 0.399069 0.5
150 1 0.483738 0.204159 0.5
351 1 0.108999 0.461765 0.5
2 1 0.335202 0.482607 0.5
160 1 0.397343 0.512553 0.5
215 1 0.330638 0.596548 0.5
28 1 0.440476 0.554455 0.5
207 1 0.0248635 0.59925 0.5
23 1 0.428121 0.864293 0.5
54 1 0.121235 0.640225 0.5
164 1 0.0552846 0.535635 0.5
132 1 0.0404921 0.875323 0.5
149 1 0.164001 0.899133 0.5
208 1 0.139797 0.611185 0.5
197 1 0.104099 0.513382 0.5
130 1 0.277158 0.65525 0.5
326 1 0.373252 0.552111 0.5
267 1 0.0895233 0.872677 0.5
120 1 0.018992 0.636553 0.5
260 1 0.293962 0.557928 0.5
181 1 0.472262 0.663568 0.5
316 1 0.187666 0.529088 0.5
269 1 0.459263 0.605981 0.5
60 1 0.408443 0.675829 0.5
12 1 0.0526299 0.826012 0.5
308 1 0.370679 0.659434 0.5
319 1 0.254011 0.94162 0.5
125 1 0.192958 0.607081 0.5
171 1 0.247736 0.677634 0.5
26 1 0.477367 0.888617 0.5
193 1 0.466378 0.528547 0.5
202 1 0.171126 0.641773 0.5
349 1 0.367041 0.596148 0.5
106 1 0.331092 0.645823 0.5
147 1 0.384078 0.750874 0.5
88 1 0.287936 0.953845 0.5
238 1 0.0209214 0.698504 0.5
389 1 0.419889 0.585242 0.5
318 1 0.345617 0.68665 0.5
381 1 0.130501 0.841256 0.5
180 1 0.154061 0.534773 0.5
153 1 0.0543017 0.707775 0.5
264 1 0.194008 0.883411 0.5
82 1 0.238401 0.594217 0.5
115 1 0.110395 0.700785 0.5
144 1 0.399926 0.614809 0.5
384 1 0.252749 0.737488 0.5
399 1 0.234948 0.522159 0.5
380 1 0.205884 0.662608 0.5
99 1 0.00805812 0.752974 0.5
315 1 0.235015 0.6428 0.5
248 1 0.26224 0.987092 0.5
340 1 0.113001 0.737736 0.5
229 1 0.215055 0.910957 0.5
364 1 0.285675 0.712986 0.5
386 1 0.37303 0.941883 0.5
307 1 0.0712606 0.745736 0.5
261 1 0.356459 0.969178 0.5
373 1 0.179069 0.789431 0.5
232 1 0.340016 0.838584 0.5
43 1 0.431563 0.651574 0.5
210 1 0.385995 0.706184 0.5
67 1 0.0803813 0.635606 0.5
363 1 0.0827406 0.673921 0.5
330 1 0.03741 0.945808 0.5
47 1 0.327128 0.520215 0.5
306 1 0.344714 0.922312 0.5
382 1 0.0454016 0.792123 0.5
57 1 0.40522 0.827525 0.5
162 1 0.308926 0.926371 0.5
385 1 0.355224 0.778549 0.5
107 1 0.366659 0.81451 0.5
375 1 0.165098 0.969255 0.5
398 1 0.0770712 0.921599 0.5
58 1 0.178999 0.69045 0.5
302 1 0.319653 0.765274 0.5
97 1 0.49871 0.635885 0.5
3 1 0.143217 0.72168 0.5
104 1 0.232438 0.783879 0.5
348 1 0.132997 0.979376 0.5
159 1 0.463489 0.989333 0.5
170 1 0.355618 0.876056 0.5
141 1 0.319428 0.866466 0.5
41 1 0.17247 0.740501 0.5
56 1 0.227447 0.709977 0.5
297 1 0.209965 0.749232 0.5
324 1 0.444333 0.827003 0.5
24 1 0.472956 0.76607 0.5
93 1 0.203434 0.846722 0.5
263 1 0.283695 0.783651 0.5
233 1 0.0874145 0.783603 0.5
313 1 0.0637597 0.98471 0.5
66 1 0.109593 0.812356 0.5
396 1 0.0135231 0.548394 0.5
133 1 0.40309 0.781522 0.5
278 1 0.126361 0.876578 0.5
163 1 0.103389 0.945492 0.5
343 1 0.23523 0.875141 0.5
329 1 0.469152 0.953533 0.5
231 1 0.166431 0.85624 0.5
86 1 0.263938 0.847161 0.5
34 1 0.203334 0.977051 0.5
228 1 0.145136 0.939021 0.5
266 1 0.500211 0.546178 0.5
92 1 0.043041 0.672598 0.5
39 1 0.0158088 0.912729 0.5
185 1 0.323098 0.983388 0.5
137 1 0.86493 0.0683372 0.5
274 1 0.929634 0.487202 0.5
78 1 0.689031 0.0586492 0.5
331 1 0.518693 0.20134 0.5
311 1 0.98443 0.413939 0.5
283 1 0.64388 0.0215119 0.5
300 1 0.74395 0.257166 0.5
281 1 0.911378 0.402842 0.5
361 1 0.625506 0.450058 0.5
128 1 0.590605 0.43966 0.5
112 1 0.759155 0.0775634 0.5
91 1 0.585643 0.0543195 0.5
365 1 0.791064 0.0960533 0.5
359 1 0.974167 0.164425 0.5
101 1 0.755798 0.0423657 0.5
140 1 0.838309 0.11185 0.5
298 1 0.588039 0.323236 0.5
35 1 0.682325 0.123278 0.5
259 1 0.844862 0.149538 0.5
152 1 0.90305 0.10366 0.5
327 1 0.952365 0.12907 0.5
98 1 0.626216 0.488624 0.5
378 1 0.721305 0.0303202 0.5
1 1 0.983073 0.0650375 0.5
242 1 0.641654 0.130087 0.5
257 1 0.693752 0.289913 0.5
393 1 0.912221 0.192473 0.5
252 1 0.772197 0.218172 0.5
44 1 0.880856 0.158865 0.5
84 1 0.552885 0.234563 0.5
51 1 0.944376 0.0733909 0.5
280 1 0.692203 0.487634 0.5
80 1 0.794854 0.130839 0.5
400 1 0.791629 0.340302 0.5
161 1 0.822929 0.0338598 0.5
158 1 0.872206 0.212141 0.5
188 1 0.558222 0.401509 0.5
397 1 0.539529 0.128013 0.5
220 1 0.787234 0.274226 0.5
169 1 0.977501 0.0983583 0.5
179 1 0.778989 0.183814 0.5
239 1 0.673195 0.175679 0.5
314 1 0.589621 0.180704 0.5
391 1 0.963219 0.342131 0.5
234 1 0.951632 0.39108 0.5
371 1 0.731625 0.29157 0.5
249 1 0.602119 0.381343 0.5
289 1 0.980139 0.23762 0.5
271 1 0.942122 0.26972 0.5
13 1 0.561748 0.283854 0.5
372 1 0.824983 0.321838 0.5
328 1 0.770007 0.36773 0.5
157 1 0.702827 0.245991 0.5
253 1 0.893634 0.481879 0.5
320 1 0.881309 0.0268311 0.5
119 1 0.553249 0.349839 0.5
243 1 0.642267 0.2149 0.5
154 1 0.878903 0.360685 0.5
70 1 0.502944 0.386537 0.5
118 1 0.902673 0.0659501 0.5
111 1 0.921873 0.343046 0.5
100 1 0.904676 0.231869 0.5
214 1 0.748515 0.484289 0.5
369 1 0.639034 0.167176 0.5
290 1 0.93352 0.309821 0.5
383 1 0.859129 0.245274 0.5
294 1 0.725831 0.148378 0.5
339 1 0.921585 0.0374094 0.5
87 1 0.66505 0.262504 0.5
235 1 0.726696 0.209676 0.5
191 1 0.857719 0.394177 0.5
392 1 0.949123 0.432077 0.5
322 1 0.828981 0.470931 0.5
134 1 0.696712 0.411214 0.5
262 1 0.563604 0.0904488 0.5
61 1 0.619374 0.0468654 0.5
186 1 0.652931 0.353569 0.5
45 1 0.710946 0.372913 0.5
350 1 0.708121 0.337479 0.5
95 1 0.738978 0.419442 0.5
76 1 0.833108 0.356701 0.5
85 1 0.567367 0.4937 0.5
209 1 0.673686 0.325147 0.5
142 1 0.656665 0.419176 0.5
199 1 0.776288 0.445766 0.5
227 1 0.531895 0.465371 0.5
336 1 0.677273 0.220629 0.5
18 1 0.673463 0.385273 0.5
135 1 0.638134 0.317537 0.5
303 1 0.622137 0.268629 0.5
14 1 0.521301 0.0891318 0.5
30 1 0.858836 0.317097 0.5
156 1 0.517529 0.428887 0.5
224 1 0.683521 0.453105 0.5
366 1 0.78775 0.487097 0.5
195 1 0.539061 0.0133462 0.5
5 1 0.519957 0.266145 0.5
71 1 0.502947 0.343185 0.5
317 1 0.91987 0.00486741 0.5
334 1 0.766763 0.00467836 0.5
355 1 0.517015 0.499194 0.5
42 1 0.606923 0.614201 0.5
196 1 0.74406 0.634165 0.5
270 1 0.785366 0.565002 0.5
173 1 0.511335 0.586799 0.5
190 1 0.929927 0.800999 0.5
247 1 0.977109 0.645713 0.5
167 1 0.536449 0.756634 0.5
312 1 0.719553 0.995209 0.5
277 1 0.696799 0.967172 0.5
19 1 0.688852 0.615874 0.5
77 1 0.592645 0.762477 0.5
59 1 0.673303 0.780782 0.5
219 1 0.612277 0.657065 0.5
216 1 0.579704 0.581701 0.5
37 1 0.650976 0.525215 0.5
387 1 0.508401 0.792895 0.5
15 1 0.527436 0.667659 0.5
50 1 0.656188 0.586664 0.5
174 1 0.553334 0.71029 0.5
368 1 0.685228 0.560495 0.5
237 1 0.881174 0.515789 0.5
36 1 0.613741 0.986548 0.5
377 1 0.616174 0.735025 0.5
126 1 0.824384 0.995383 0.5
225 1 0.821424 0.618905 0.5
48 1 0.865318 0.671634 0.5
292 1 0.965679 0.546583 0.5
241 1 0.593609 0.890914 0.5
246 1 0.844553 0.886871 0.5
32 1 0.963756 0.710739 0.5
265 1 0.745159 0.533761 0.5
187 1 0.705486 0.700792 0.5
287 1 0.922116 0.701064 0.5
62 1 0.86303 0.579537 0.5
136 1 0.863404 0.632963 0.5
323 1 0.671318 0.705419 0.5
73 1 0.735359 0.566824 0.5
342 1 0.774556 0.609834 0.5
268 1 0.8742 0.748465 0.5
282 1 0.973304 0.803962 0.5
168 1 0.829083 0.674505 0.5
146 1 0.804833 0.698216 0.5
165 1 0.898221 0.904711 0.5
244 1 0.915468 0.618898 0.5
250 1 0.734835 0.719418 0.5
53 1 0.716824 0.662763 0.5
68 1 0.656777 0.664047 0.5
138 1 0.778261 0.528923 0.5
117 1 0.681637 0.838111 0.5
286 1 0.533824 0.867486 0.5
46 1 0.762306 0.66838 0.5
354 1 0.887438 0.853497 0.5
96 1 0.795856 0.903346 0.5
288 1 0.797224 0.81417 0.5
123 1 0.561773 0.77926 0.5
145 1 0.820504 0.729436 0.5
325 1 0.878218 0.9398 0.5
213 1 0.871272 0.809245 0.5
6 1 0.594365 0.701425 0.5
345 1 0.770226 0.847138 0.5
155 1 0.603184 0.808262 0.5
194 1 0.703486 0.899554 0.5
40 1 0.619893 0.548654 0.5
310 1 0.647373 0.820506 0.5
279 1 0.715959 0.844977 0.5
127 1 0.848843 0.847765 0.5
110 1 0.517591 0.717146 0.5
16 1 0.592728 0.944949 0.5
347 1 0.995812 0.966036 0.5
236 1 0.555237 0.952337 0.5
108 1 0.742078 0.769762 0.5
83 1 0.957266 0.581534 0.5
17 1 0.814089 0.845545 0.5
75 1 0.842635 0.941218 0.5
177 1 0.537849 0.620643 0.5
89 1 0.927724 0.656588 0.5
353 1 0.582158 0.852029 0.5
204 1 0.550338 0.907261 0.5
151 1 0.57562 0.982163 0.5
7 1 0.796382 0.94735 0.5
212 1 0.721526 0.945073 0.5
341 1 0.97898 0.914864 0.5
346 1 0.931589 0.558245 0.5
79 1 0.623367 0.923948 0.5
189 1 0.956623 0.983473 0.5
338 1 0.813354 0.763556 0.5
276 1 0.995495 0.885057 0.5
65 1 0.513088 0.927986 0.5
10 1 0.973318 0.765698 0.5
337 1 0.584341 0.538886 0.5
139 1 0.707266 0.531108 0.5
166 1 0.762123 0.948733 0.5
291 1 0.897243 0.576761 0.5
284 1 0.977587 0.851605 0.5
27 1 0.514655 0.96197 0.5
