ITEM: TIMESTEP
100000
ITEM: NUMBER OF ATOMS
400
ITEM: BOX BOUNDS pp pp pp
0.0000000000000000e+00 2.2360679774997898e+01
0.0000000000000000e+00 2.2360679774997898e+01
-5.5901699437494745e-01 5.5901699437494745e-01
ITEM: ATOMS id type xs ys zs
286 1 0.179324 0.0780892 0.5
160 1 0.321751 0.0309292 0.5
36 1 0.464149 0.470743 0.5
99 1 0.327799 0.406191 0.5
371 1 0.298965 0.369441 0.5
16 1 0.0361117 0.216523 0.5
200 1 0.449193 0.0504315 0.5
354 1 0.275043 0.00678973 0.5
165 1 0.381973 0.0881558 0.5
246 1 0.372999 0.0408188 0.5
163 1 0.496233 0.353558 0.5
232 1 0.102445 0.0915344 0.5
207 1 0.197025 0.139277 0.5
258 1 0.188445 0.0272733 0.5
346 1 0.275908 0.0557512 0.5
56 1 0.266405 0.127967 0.5
182 1 0.107823 0.180447 0.5
216 1 0.0869109 0.142049 0.5
333 1 0.300838 0.158859 0.5
91 1 0.298524 0.0970528 0.5
395 1 0.346413 0.127937 0.5
57 1 0.187789 0.49985 0.5
14 1 0.108256 0.225274 0.5
139 1 0.232278 0.00474044 0.5
149 1 0.438169 0.255605 0.5
97 1 0.366915 0.182642 0.5
281 1 0.42464 0.0987472 0.5
174 1 0.479149 0.296745 0.5
81 1 0.151532 0.207425 0.5
63 1 0.152868 0.16208 0.5
118 1 0.229071 0.0983933 0.5
145 1 0.355902 0.300981 0.5
137 1 0.389821 0.270454 0.5
337 1 0.286817 0.460486 0.5
33 1 0.0165488 0.327979 0.5
325 1 0.112313 0.274198 0.5
121 1 0.199121 0.268619 0.5
80 1 0.396739 0.137284 0.5
227 1 0.360306 0.231584 0.5
394 1 0.419261 0.198226 0.5
210 1 0.152934 0.34928 0.5
206 1 0.228499 0.218709 0.5
264 1 0.436577 0.324165 0.5
250 1 0.313914 0.245905 0.5
279 1 0.0969145 0.486732 0.5
380 1 0.072582 0.257927 0.5
304 1 0.0595231 0.0449166 0.5
255 1 0.0704547 0.342347 0.5
349 1 0.148442 0.251596 0.5
170 1 0.393583 0.346652 0.5
164 1 0.0328764 0.367564 0.5
125 1 0.118866 0.380892 0.5
327 1 0.243754 0.173272 0.5
215 1 0.225441 0.0532092 0.5
384 1 0.199299 0.183917 0.5
15 1 0.323595 0.330722 0.5
352 1 0.0238303 0.408616 0.5
212 1 0.15914 0.292483 0.5
47 1 0.194129 0.326656 0.5
222 1 0.26896 0.233639 0.5
71 1 0.330446 0.451508 0.5
365 1 0.113471 0.326309 0.5
383 1 0.0943704 0.427529 0.5
342 1 0.29894 0.202473 0.5
298 1 0.281546 0.286799 0.5
282 1 0.485365 0.237975 0.5
341 1 0.3785 0.462789 0.5
107 1 0.219157 0.404918 0.5
229 1 0.194507 0.454963 0.5
130 1 0.237723 0.293585 0.5
168 1 0.419338 0.396726 0.5
25 1 0.142736 0.455321 0.5
249 1 0.165508 0.419776 0.5
65 1 0.446635 0.14679 0.5
317 1 0.277724 0.414665 0.5
335 1 0.268603 0.333855 0.5
348 1 0.415471 0.489251 0.5
147 1 0.470378 0.184596 0.5
106 1 0.336792 0.0744694 0.5
181 1 0.146186 0.0126803 0.5
211 1 0.242373 0.496451 0.5
357 1 0.0522431 0.0976806 0.5
48 1 0.188606 0.373293 0.5
122 1 0.232278 0.356434 0.5
228 1 0.488147 0.421363 0.5
156 1 0.469438 0.0945301 0.5
1 1 0.0674997 0.299677 0.5
376 1 0.152846 0.113313 0.5
18 1 0.42242 0.440704 0.5
392 1 0.353473 0.364334 0.5
238 1 0.0745156 0.389232 0.5
331 1 0.0192839 0.277232 0.5
27 1 0.0376883 0.457627 0.5
398 1 0.427706 0.00857497 0.5
23 1 0.459653 0.381135 0.5
79 1 0.379439 0.411556 0.5
34 1 0.243831 0.453421 0.5
173 1 0.110293 0.0430843 0.5
96 1 0.0594697 0.179809 0.5
138 1 0.0313847 0.136237 0.5
213 1 0.00591422 0.0841703 0.5
110 1 0.472653 0.004562 0.5
43 1 0.000468255 0.176056 0.5
192 1 0.341279 0.497459 0.5
209 1 0.492797 0.773287 0.5
198 1 0.123204 0.967837 0.5
199 1 0.0779998 0.872029 0.5
231 1 0.0270507 0.731312 0.5
176 1 0.362606 0.998224 0.5
252 1 0.00960535 0.870441 0.5
310 1 -0.000446306 0.795621 0.5
280 1 0.439674 0.896902 0.5
29 1 0.0534511 0.677729 0.5
89 1 0.449802 0.521627 0.5
324 1 0.0418961 1.00092 0.5
344 1 0.417122 0.61866 0.5
393 1 0.145876 0.502804 0.5
308 1 0.197149 0.578079 0.5
162 1 0.0634194 0.581119 0.5
287 1 0.0280716 0.614227 0.5
237 1 0.315197 0.534581 0.5
323 1 0.446724 0.945947 0.5
230 1 0.456151 0.683398 0.5
183 1 0.0718075 0.636683 0.5
7 1 0.23454 0.659844 0.5
52 1 0.256831 0.5663 0.5
329 1 0.00371507 0.500036 0.5
375 1 0.387694 0.530316 0.5
73 1 0.326687 0.624646 0.5
113 1 0.394091 0.885218 0.5
321 1 0.111104 0.610428 0.5
92 1 0.21894 0.53956 0.5
387 1 0.226352 0.903916 0.5
133 1 0.286329 0.652525 0.5
24 1 0.447695 0.568208 0.5
242 1 0.286102 0.50227 0.5
141 1 0.155114 0.598102 0.5
90 1 0.100945 0.672061 0.5
303 1 0.264665 0.692078 0.5
188 1 0.256599 0.615768 0.5
247 1 0.356782 0.568742 0.5
388 1 0.401317 0.663666 0.5
74 1 0.474922 0.868554 0.5
150 1 0.138968 0.644028 0.5
368 1 0.209685 0.619184 0.5
245 1 0.299035 0.746673 0.5
9 1 0.159551 0.551507 0.5
166 1 0.32382 0.688066 0.5
326 1 0.375454 0.62945 0.5
148 1 0.357106 0.858027 0.5
399 1 0.122896 0.713247 0.5
214 1 0.180798 0.649366 0.5
32 1 0.451369 0.763993 0.5
152 1 0.0768424 0.717765 0.5
86 1 0.249337 0.736763 0.5
185 1 0.422486 0.718323 0.5
290 1 0.307354 0.585409 0.5
75 1 0.0334409 0.821958 0.5
300 1 0.138587 0.787285 0.5
146 1 0.215617 0.70478 0.5
379 1 0.194469 0.750794 0.5
374 1 0.375151 0.70053 0.5
248 1 0.411706 0.81214 0.5
129 1 0.18425 0.977698 0.5
284 1 0.458429 0.638468 0.5
157 1 0.0914432 0.77157 0.5
202 1 0.119546 0.860503 0.5
42 1 0.166065 0.698585 0.5
320 1 0.34532 0.739612 0.5
169 1 0.389203 0.745149 0.5
114 1 0.274832 0.910884 0.5
355 1 0.493779 0.522319 0.5
307 1 0.0453104 0.77692 0.5
301 1 0.272372 0.833769 0.5
102 1 0.229013 0.945385 0.5
95 1 0.425339 0.854473 0.5
236 1 0.458642 0.81614 0.5
54 1 0.156749 0.826879 0.5
276 1 0.25744 0.779314 0.5
396 1 0.370664 0.790954 0.5
226 1 0.27346 0.961163 0.5
2 1 0.327149 0.780789 0.5
187 1 0.312917 0.979373 0.5
62 1 0.0771089 0.819606 0.5
8 1 0.0996214 0.915476 0.5
189 1 0.203013 0.800587 0.5
312 1 0.291805 0.871636 0.5
260 1 0.14701 0.900428 0.5
219 1 0.321058 0.910431 0.5
251 1 0.328018 0.828392 0.5
28 1 0.0416813 0.917181 0.5
44 1 0.175079 0.931449 0.5
108 1 0.112389 0.556432 0.5
31 1 0.399947 0.573495 0.5
332 1 0.0637994 0.96202 0.5
350 1 0.380205 0.928401 0.5
41 1 0.0150147 0.959798 0.5
64 1 0.495738 0.573173 0.5
120 1 0.0948804 0.999872 0.5
11 1 0.488632 0.946994 0.5
194 1 0.0420029 0.539721 0.5
358 1 0.00134646 0.567568 0.5
305 1 0.395011 0.969285 0.5
19 1 0.484994 0.730413 0.5
66 1 0.00877606 0.664778 0.5
134 1 0.664781 0.481721 0.5
105 1 0.534047 0.257392 0.5
397 1 0.610879 0.483048 0.5
100 1 0.885977 0.0736189 0.5
367 1 0.941088 0.463081 0.5
61 1 0.990934 0.451596 0.5
155 1 0.876015 0.407363 0.5
306 1 0.63934 0.0283727 0.5
5 1 0.746399 0.063859 0.5
178 1 0.703447 0.0683009 0.5
389 1 0.911242 0.0322697 0.5
128 1 0.818918 0.133496 0.5
339 1 0.967415 0.0503655 0.5
274 1 0.960224 0.420355 0.5
316 1 0.575689 0.244639 0.5
268 1 0.591144 0.0510412 0.5
297 1 0.904184 0.49778 0.5
172 1 0.79918 0.0801027 0.5
175 1 0.638491 0.154761 0.5
378 1 0.763252 0.103236 0.5
37 1 0.692982 0.15362 0.5
109 1 0.909083 0.124985 0.5
293 1 0.8687 0.146996 0.5
82 1 0.935526 0.177328 0.5
295 1 0.953757 0.0899039 0.5
151 1 0.657059 0.076147 0.5
20 1 0.545365 0.0556905 0.5
311 1 0.712159 0.0171589 0.5
39 1 0.770684 0.304348 0.5
361 1 0.514133 0.187712 0.5
385 1 0.853886 0.195817 0.5
266 1 0.668243 0.279702 0.5
50 1 0.610807 0.108495 0.5
77 1 0.535942 0.442184 0.5
391 1 0.803047 0.472475 0.5
221 1 0.738385 0.169153 0.5
196 1 0.897897 0.223872 0.5
85 1 0.845024 0.2409 0.5
363 1 0.81771 0.0400826 0.5
370 1 0.992815 0.219559 0.5
328 1 0.677003 0.233937 0.5
259 1 0.729638 0.434949 0.5
386 1 0.924827 0.262674 0.5
87 1 0.547252 0.157567 0.5
116 1 0.654612 0.195103 0.5
233 1 0.754031 0.254532 0.5
235 1 0.790144 0.165602 0.5
55 1 0.88291 0.271109 0.5
123 1 0.979531 0.370542 0.5
153 1 0.841683 0.362098 0.5
373 1 0.787883 0.423697 0.5
94 1 0.713272 0.366186 0.5
283 1 0.520353 0.486758 0.5
334 1 0.521378 0.319562 0.5
35 1 0.620906 0.239559 0.5
40 1 0.664006 0.119534 0.5
104 1 0.719652 0.106407 0.5
208 1 0.806843 0.204785 0.5
101 1 0.801798 0.261272 0.5
159 1 0.889542 0.341058 0.5
203 1 0.97132 0.141903 0.5
285 1 0.580856 0.441693 0.5
273 1 0.593199 0.148581 0.5
144 1 0.726146 0.296915 0.5
132 1 0.675778 0.392519 0.5
46 1 0.765093 0.35325 0.5
382 1 0.76426 0.204515 0.5
3 1 0.974029 0.307151 0.5
244 1 0.943897 0.221279 0.5
83 1 0.583502 0.196285 0.5
261 1 0.605669 0.329108 0.5
278 1 0.843852 0.288608 0.5
360 1 0.944871 0.341613 0.5
338 1 0.898865 0.449428 0.5
262 1 0.620785 0.284952 0.5
351 1 0.661162 0.336952 0.5
224 1 0.912062 0.304542 0.5
205 1 0.864782 0.0270898 0.5
58 1 0.676178 0.438341 0.5
69 1 0.557712 0.291971 0.5
154 1 0.749405 0.395257 0.5
88 1 0.555374 0.346569 0.5
314 1 0.798531 0.382757 0.5
277 1 0.527928 0.390202 0.5
241 1 0.593688 0.0043368 0.5
353 1 0.523816 0.117897 0.5
68 1 0.634542 0.373563 0.5
381 1 0.624089 0.420241 0.5
177 1 0.808025 0.33209 0.5
265 1 0.849537 0.455658 0.5
171 1 0.588566 0.379872 0.5
263 1 0.761854 0.485506 0.5
318 1 0.710585 0.473397 0.5
256 1 0.919386 0.397079 0.5
70 1 0.831868 0.410943 0.5
180 1 0.946361 0.000811508 0.5
364 1 0.503499 0.0431151 0.5
30 1 0.781308 0.000601374 0.5
195 1 0.562746 0.606694 0.5
158 1 0.965846 0.65871 0.5
243 1 0.94562 0.954069 0.5
143 1 0.973709 0.750487 0.5
294 1 0.531357 0.54718 0.5
190 1 0.543928 0.790367 0.5
142 1 0.712833 0.66793 0.5
254 1 0.939656 0.778549 0.5
302 1 0.633679 0.977239 0.5
26 1 0.501107 0.6698 0.5
356 1 0.662263 0.605675 0.5
60 1 0.962027 0.817154 0.5
217 1 0.618921 0.58923 0.5
275 1 0.815643 0.542909 0.5
161 1 0.822115 0.631826 0.5
269 1 0.706406 0.531895 0.5
126 1 0.55202 0.655761 0.5
400 1 0.669575 0.55729 0.5
223 1 0.7522 0.585554 0.5
359 1 0.708277 0.575644 0.5
167 1 0.757674 0.528374 0.5
291 1 0.801337 0.590812 0.5
4 1 0.838227 0.506711 0.5
93 1 0.518255 0.627041 0.5
340 1 0.610483 0.632279 0.5
131 1 0.842216 0.676259 0.5
362 1 0.668402 0.670845 0.5
13 1 0.718628 0.623629 0.5
103 1 0.759826 0.682876 0.5
22 1 0.827327 0.787769 0.5
112 1 0.88045 0.651243 0.5
67 1 0.922528 0.839383 0.5
78 1 0.522655 0.988172 0.5
38 1 0.597148 0.777753 0.5
366 1 0.803262 0.701104 0.5
204 1 0.820362 0.835948 0.5
239 1 0.935221 0.689444 0.5
369 1 0.912132 0.5829 0.5
343 1 0.508051 0.834311 0.5
345 1 0.556523 0.698705 0.5
201 1 0.607106 0.732173 0.5
111 1 0.772901 0.634916 0.5
98 1 0.868937 0.559395 0.5
119 1 0.5429 0.858525 0.5
135 1 0.593007 0.670024 0.5
347 1 0.73104 0.765577 0.5
12 1 0.925082 0.646649 0.5
299 1 0.884463 0.756712 0.5
179 1 0.833959 0.739515 0.5
140 1 0.97742 0.705323 0.5
253 1 0.648476 0.754981 0.5
330 1 0.576096 0.83279 0.5
289 1 0.689978 0.742908 0.5
220 1 0.89428 0.705688 0.5
372 1 0.582478 0.549706 0.5
127 1 0.599334 0.874843 0.5
218 1 0.631546 0.811973 0.5
45 1 0.714596 0.809432 0.5
21 1 0.779905 0.771488 0.5
197 1 0.864819 0.832165 0.5
136 1 0.931089 0.736395 0.5
76 1 0.875709 0.942262 0.5
309 1 0.674371 0.997319 0.5
240 1 0.689754 0.953326 0.5
288 1 0.697619 0.856523 0.5
6 1 0.80677 0.953367 0.5
193 1 0.721063 0.7129 0.5
225 1 0.689402 0.908923 0.5
49 1 0.773875 0.817138 0.5
124 1 0.894937 0.799163 0.5
272 1 0.607745 0.942766 0.5
377 1 0.647805 0.87508 0.5
117 1 0.799126 0.872551 0.5
115 1 0.510771 0.901086 0.5
72 1 0.644096 0.920563 0.5
257 1 0.964551 0.524965 0.5
322 1 0.563694 0.953999 0.5
267 1 0.745717 0.847897 0.5
271 1 0.726827 0.928919 0.5
184 1 0.920381 0.919417 0.5
292 1 0.964224 0.866283 0.5
17 1 0.557401 0.899043 0.5
84 1 0.835944 0.917947 0.5
234 1 0.762889 0.896149 0.5
336 1 0.902638 0.878448 0.5
191 1 0.979979 0.912305 0.5
186 1 0.628151 0.531984 0.5
59 1 0.732919 0.973908 0.5
313 1 0.565648 0.507782 0.5
315 1 0.961401 0.584414 0.5
53 1 0.853747 0.878078 0.5
10 1 0.860012 0.600176 0.5
319 1 0.84825 0.980914 0.5
270 1 0.920208 0.540722 0.5
51 1 0.898572 0.981243 0.5
390 1 0.53078 0.743788 0.5
296 1 0.993796 0.996631 0.5
