ITEM: TIMESTEP
100000
ITEM: NUMBER OF ATOMS
2048
ITEM: BOX BOUNDS pp pp pp
0.0000000000000000e+00 1.2302095357258066e+01
0.0000000000000000e+00 1.2302095357258066e+01
0.0000000000000000e+00 1.2302095357258066e+01
ITEM: ATOMS id type xs ys zs
1448 1 0.166835 0.290926 0.0255001
669 1 0.405328 0.0493231 0.0726314
95 1 0.456016 0.395046 0.147091
1860 1 0.0221524 0.4467 0.331072
633 1 0.0729609 0.383354 0.302399
1596 1 0.153474 0.154507 0.0874578
419 1 0.465795 0.11317 0.437819
1376 1 0.180201 0.452055 0.0151406
1741 1 0.0210901 0.970724 0.467754
581 1 0.469081 0.871168 0.169269
1363 1 0.0779081 0.26747 0.0898553
927 1 0.200505 0.134686 0.0281318
6 1 0.46138 0.496498 0.018639
1495 1 0.491849 0.0549204 0.191876
566 1 0.00872163 0.00417392 0.306295
576 1 0.156623 0.241517 0.0875811
1344 1 0.0941506 0.809092 0.497484
1899 1 0.438028 0.281183 0.491292
1661 1 0.356622 0.292889 0.142667
423 1 0.013272 0.562581 0.152906
853 1 0.296734 0.886107 0.438661
1024 1 0.0486797 0.531515 0.0794799
1958 1 0.0155802 0.440794 0.411814
741 1 0.498725 0.144159 0.0654207
1457 1 0.0612288 0.397157 0.0200699
1232 1 0.0700752 0.31628 0.00901039
909 1 0.259171 0.435465 0.0380509
1952 1 0.322018 0.486691 0.0761671
1089 1 0.161382 0.505907 0.487014
786 1 0.0678437 0.294559 0.324344
1446 1 0.0294766 0.796023 0.312846
913 1 0.227193 0.608697 0.069871
453 1 0.474743 0.810706 0.240471
1864 1 0.461023 0.969868 0.29209
501 1 0.197088 0.494605 0.147512
1026 1 0.299783 0.386533 0.4839
933 1 0.386861 0.089622 0.416376
915 1 0.487634 0.297383 0.359338
357 1 0.429671 0.665015 0.10379
1512 1 0.269439 0.638568 0.143298
1362 1 0.307623 0.637528 0.0651635
1197 1 0.205754 0.774727 0.208733
1529 1 0.426171 0.876393 0.0326851
308 1 0.472133 0.0527185 0.283456
1425 1 0.426699 0.998434 0.0189677
1772 1 0.178092 0.205666 0.0138727
1789 1 0.0232774 0.735674 0.449229
416 1 0.42407 0.707144 0.428671
1579 1 0.171759 0.939828 0.0131399
1350 1 0.461884 0.808867 0.081731
1563 1 0.302364 0.488774 0.474674
52 1 0.463829 0.602524 0.154181
427 1 0.238693 0.0737444 -0.000201361
790 1 0.460839 0.152444 0.363598
529 1 0.293885 0.575604 0.437209
664 1 0.148819 0.0774057 0.442059
1382 1 0.0606233 0.241053 0.257465
21 1 0.0766369 0.595118 0.361302
335 1 0.342332 0.987418 0.0780576
1483 1 0.231969 0.662815 0.012425
275 1 0.117805 0.0224683 0.0941811
962 1 0.240176 0.997266 0.0454647
191 1 0.0244285 0.509351 0.484373
2028 1 0.0790551 0.0158111 0.0208239
135 1 0.0197565 0.722838 0.269964
1760 1 0.345385 0.105247 0.0785125
1307 1 0.491392 0.969538 0.0569133
691 1 0.499472 0.727765 0.490367
819 1 0.115533 0.158117 0.0200202
16 1 0.14384 0.191094 0.157506
279 1 0.2861 0.126776 0.0309828
895 1 0.259945 0.798685 0.331528
1545 1 0.230222 0.277593 0.0684193
1432 1 0.218963 0.375514 0.245643
1321 1 0.479212 0.28437 0.0595483
446 1 0.0598209 0.409945 0.11775
333 1 0.23319 0.190675 0.125593
78 1 0.359396 0.0221039 0.465305
1238 1 0.161741 0.319838 0.208508
845 1 0.187449 0.317007 0.121323
1368 1 0.377816 0.338928 0.0658931
349 1 0.203512 0.233397 0.433234
876 1 0.12292 0.337303 0.0694324
1423 1 0.428003 0.312676 0.123014
265 1 0.250664 0.732593 0.162436
1200 1 0.30179 0.792647 0.110246
639 1 0.1108 0.462804 0.0518133
1701 1 0.246357 0.437354 0.124839
1254 1 0.228489 0.720347 0.485165
498 1 0.148999 0.523966 0.202263
326 1 0.332012 0.404126 0.067325
107 1 0.424745 0.535992 0.137137
834 1 0.219372 0.687658 0.0962052
635 1 0.284015 0.504077 0.190563
4 1 0.385885 0.451614 0.118793
1631 1 0.393894 0.428665 0.199688
447 1 0.154676 0.802496 0.0197125
900 1 0.352012 0.643962 0.1301
37 1 0.335543 0.646367 0.465969
2013 1 0.0100685 0.257159 0.0565723
573 1 0.287081 0.596751 0.212018
1471 1 0.47131 0.675149 0.0241165
1872 1 0.0391412 0.714094 0.145005
1514 1 0.326479 0.751302 0.181211
663 1 0.0665758 0.815116 0.0356532
1045 1 0.0882736 0.689416 0.0905621
174 1 0.263601 0.820819 0.174921
1904 1 0.344174 0.847195 0.144007
1657 1 0.322465 0.811368 0.238987
936 1 0.268619 0.73567 0.0576112
535 1 0.282556 0.936227 0.0849624
1462 1 0.361225 0.931898 0.133366
15 1 0.408039 0.790687 0.00968482
809 1 0.0791124 0.859061 0.166643
745 1 0.0305136 0.872981 0.00310334
330 1 0.482677 0.0515825 0.0601237
1767 1 0.0607391 0.3992 0.461467
1654 1 0.192685 0.0729796 0.0917573
510 1 0.296308 0.0484479 0.0663553
73 1 0.0577205 0.0466022 0.14306
851 1 0.210998 0.958559 0.168256
1204 1 0.249814 0.0340492 0.128928
139 1 0.195589 0.248491 0.167931
931 1 0.271026 0.112347 0.111794
883 1 0.396898 0.0785825 0.143826
1258 1 0.0678601 0.178245 0.0822529
1694 1 0.348996 0.14319 0.152255
1696 1 0.040069 0.517154 0.404561
1813 1 0.0430975 0.328019 0.139206
2035 1 0.111914 0.154207 0.218914
2012 1 0.166677 0.330507 0.289491
380 1 0.383866 0.261555 0.0729239
856 1 0.135731 0.230802 0.224987
276 1 0.37944 0.214244 0.141039
844 1 0.409111 0.873185 0.116764
875 1 0.303164 0.214791 0.1561
1469 1 0.263986 0.285899 0.145498
1326 1 0.410361 0.338256 0.202369
1490 1 0.203844 0.381844 0.0786943
1400 1 0.276624 0.350096 0.0357956
398 1 0.458862 0.469381 0.092201
180 1 0.29484 0.779477 0.495411
1535 1 0.362212 0.500603 0.179236
1713 1 0.0386753 0.403546 0.197101
1343 1 0.0307804 0.48514 0.146803
1903 1 0.216706 0.506821 0.240856
431 1 0.321139 0.434394 0.157147
1989 1 0.176418 0.521733 0.0749181
1625 1 0.182398 0.443914 0.208637
1011 1 0.238141 0.560293 0.160938
1748 1 0.372168 0.589907 0.190715
989 1 0.102881 0.589575 0.105745
1146 1 0.156188 0.740605 0.157439
1608 1 0.360336 0.650097 0.248841
2024 1 0.430057 0.655247 0.194618
230 1 0.0766072 0.6847 0.412761
1061 1 0.478272 0.870315 0.38225
1577 1 0.16031 0.73245 0.0767012
839 1 0.140644 0.717429 0.270768
925 1 0.299395 0.673629 0.200879
1698 1 0.447043 0.39066 0.0726951
253 1 0.381609 0.102015 0.226789
564 1 0.0863432 0.789507 0.131401
1712 1 0.271126 0.735222 0.2403
1464 1 0.400691 0.781316 0.231529
1485 1 0.258366 0.89584 0.174869
829 1 0.327669 0.888923 0.219563
818 1 0.418535 0.944513 0.080964
1418 1 0.192929 0.316416 0.479548
767 1 0.141382 0.838166 0.0999473
60 1 0.294682 0.970925 0.165902
48 1 0.040307 0.973145 0.119716
651 1 0.111288 0.941223 0.0762895
1066 1 0.343439 0.0287593 0.226848
657 1 0.0239666 0.456839 0.0604682
1999 1 0.0930824 0.713317 0.490891
487 1 0.234193 0.0339818 0.208922
1868 1 0.383524 0.00510437 0.160535
1022 1 0.0970569 0.472717 0.461549
1815 1 0.0321325 0.208254 4.10302e-05
1598 1 0.213601 0.108134 0.172114
1682 1 0.455955 0.228796 0.147497
1248 1 0.278015 0.162575 0.216145
436 1 0.323578 0.186213 0.0784848
1252 1 0.0706471 0.214471 0.179114
1980 1 0.0631997 0.134762 0.147785
949 1 0.314999 0.0665087 0.160363
1071 1 0.335474 0.134004 0.29293
256 1 0.16528 0.464165 0.416252
56 1 0.0872513 0.330237 0.245394
268 1 0.33992 0.252393 0.214279
1266 1 0.420648 0.262268 0.213652
490 1 0.078439 0.587014 0.0286517
1179 1 0.383101 0.610108 0.0630426
842 1 0.37667 0.198508 0.0202669
23 1 0.484859 0.380445 0.218009
862 1 0.103901 0.343302 0.498255
1271 1 0.30156 0.359612 0.121476
903 1 0.374515 0.37614 0.139633
1639 1 0.462868 0.446794 0.25723
2002 1 0.055227 0.838031 0.241058
93 1 0.161725 0.413909 0.138918
282 1 0.270257 0.233092 0.473529
509 1 0.170535 0.571952 0.135896
772 1 0.15185 0.490615 0.286151
1184 1 0.327994 0.450818 0.254283
1876 1 0.191715 0.584131 0.288013
1886 1 0.267858 0.589106 0.293602
332 1 0.469122 0.744051 0.198085
1821 1 0.203871 0.694789 0.204073
1931 1 0.391313 0.721557 0.152608
1290 1 0.197859 0.607668 0.211307
1814 1 0.0931751 0.593509 0.183983
770 1 0.347792 0.738324 0.269879
652 1 0.417571 0.707267 0.25405
1453 1 0.0965635 0.715831 0.200007
658 1 0.183766 0.798942 0.289376
1143 1 0.427289 0.749859 0.36144
735 1 0.419271 0.802676 0.154198
1828 1 0.184206 0.849168 0.177466
760 1 0.12915 0.646696 0.227281
226 1 0.244124 0.825306 0.253528
891 1 0.115688 0.794644 0.214083
1155 1 0.0264758 0.743488 0.370074
710 1 0.138345 0.904919 0.14803
1942 1 0.165746 0.0246604 0.240856
1080 1 0.211509 0.89711 0.236341
1404 1 0.389006 0.99278 0.278641
381 1 0.436895 0.00775365 0.215925
1433 1 0.0408098 0.0861706 0.274114
1878 1 0.11937 0.0974803 0.289903
1662 1 0.15352 0.951034 0.218009
1587 1 0.378005 0.0659595 0.314411
1364 1 0.0856163 0.0965053 0.0674372
1039 1 0.171655 0.0269768 0.159161
986 1 0.290536 0.0870691 0.237583
1768 1 0.00445087 0.450118 0.25256
717 1 0.0992412 0.0729228 0.213597
343 1 0.256394 0.170461 0.291541
629 1 0.419002 0.147613 0.177245
1554 1 0.316952 0.29222 0.456296
1064 1 0.418993 0.776112 0.484428
1311 1 0.196275 0.174248 0.222195
956 1 0.198848 0.243595 0.272742
556 1 0.439311 0.207576 0.068391
768 1 0.0133405 0.988789 0.208851
1747 1 0.258932 0.245826 0.220663
1834 1 0.0704005 0.219105 0.339994
701 1 0.303798 0.355254 0.213249
1361 1 0.451479 0.302036 0.283455
961 1 0.133069 0.240121 0.486336
1129 1 0.139002 0.38678 0.239987
183 1 0.235769 0.371865 0.16378
1054 1 0.374582 0.586611 0.293245
388 1 0.119603 0.275503 0.155481
1298 1 0.262736 0.43193 0.215593
1536 1 0.106025 0.449354 0.190475
666 1 0.0867771 0.452127 0.265996
1101 1 0.382812 0.484248 0.298099
109 1 0.432329 0.353458 0.471396
1043 1 0.388617 0.408854 0.281678
1822 1 0.0977392 0.56696 0.284142
414 1 0.4738 0.751708 0.29386
1416 1 0.146529 0.649445 0.138767
586 1 0.189273 0.508746 0.356567
1613 1 0.209631 0.659128 0.276456
1589 1 0.290022 0.663891 0.279613
1846 1 0.194179 0.176959 0.490039
103 1 0.226374 0.728133 0.311596
1174 1 0.440492 0.128058 0.0212888
302 1 0.0766943 0.705177 0.322479
973 1 0.217729 0.950133 0.343392
464 1 0.271502 0.897449 0.28138
1588 1 0.439924 0.945549 0.157578
674 1 0.47465 0.929381 0.227298
2000 1 0.0624027 0.948754 0.309615
784 1 0.0785667 0.917647 0.232161
1141 1 0.10482 0.975726 0.162184
1123 1 0.110484 0.518838 0.131394
1825 1 0.138616 0.107665 0.150766
1914 1 0.0295761 0.0432689 0.435241
494 1 0.3088 0.961252 0.242919
8 1 0.306095 0.0906765 0.439414
1895 1 0.0295693 0.151793 0.217638
1374 1 0.159173 0.166478 0.290335
906 1 0.414271 0.135808 0.292367
18 1 0.0920336 0.99296 0.246093
1552 1 0.151159 0.0870108 0.365681
1267 1 0.26791 0.193074 0.364166
1015 1 0.459383 0.371787 0.316933
1773 1 0.0972173 0.746541 0.00712069
433 1 0.110961 0.873741 0.0365801
850 1 0.366604 0.177033 0.222823
1078 1 0.136088 0.258033 0.317315
539 1 0.174041 0.296056 0.376299
2018 1 0.244529 0.923185 0.0120189
1965 1 0.0425672 0.949822 0.0439822
97 1 0.219817 0.441132 0.285995
137 1 0.122693 0.229807 0.402222
171 1 0.360157 0.316956 0.259883
345 1 0.152094 0.431418 0.339366
121 1 0.123753 0.360412 0.35036
474 1 0.36342 0.377755 0.349414
1242 1 0.438949 0.445488 0.340591
979 1 0.42482 0.388494 0.400461
9 1 0.415972 0.520977 0.232948
297 1 0.378734 0.533419 0.420357
812 1 0.0695963 0.520287 0.208008
1707 1 0.314046 0.506899 0.381657
1642 1 0.302768 0.979378 0.00658055
1269 1 0.133959 0.629446 0.312887
1236 1 0.260009 0.511834 0.310399
1399 1 0.467938 0.664102 0.303773
531 1 0.484883 0.885466 0.0903212
1295 1 0.313055 0.719995 0.352554
185 1 0.247218 0.558074 0.369007
2001 1 0.0392485 0.640785 0.281228
1055 1 0.443004 0.593353 0.248673
1211 1 0.00736039 0.579711 0.326777
1697 1 0.358084 0.764601 0.415629
991 1 0.360456 0.845013 0.383284
258 1 0.0424288 0.063537 0.353545
371 1 0.319316 0.691475 0.00920623
2022 1 0.269436 0.659541 0.425246
1506 1 0.402505 0.858286 0.211652
673 1 0.426075 0.821794 0.326437
1149 1 0.324421 0.714421 0.111712
1866 1 0.140994 0.863369 0.244969
1147 1 0.0377346 0.588679 0.435038
970 1 0.199574 0.732358 0.00605787
1059 1 0.39671 0.711161 0.0392592
868 1 0.230997 0.963807 0.267799
1050 1 0.368961 0.861001 0.283409
1635 1 0.309876 0.270797 0.0796904
87 1 0.39507 0.937498 0.221585
1534 1 0.248631 0.0700567 0.303762
1840 1 0.287813 0.00456784 0.309744
51 1 0.156205 0.936148 0.292298
1690 1 0.0254604 0.267268 0.389158
654 1 0.190311 0.0193319 0.314864
240 1 0.164945 0.929809 0.450026
1652 1 0.287401 0.111537 0.355793
2044 1 0.370537 0.138377 0.357149
1578 1 0.0280654 0.252601 0.468708
90 1 0.195463 0.0971724 0.250317
1759 1 0.468629 0.226206 0.320208
1606 1 0.0278849 0.141556 0.35186
1700 1 0.165527 0.991225 0.388998
299 1 0.311886 0.235769 0.286665
425 1 0.38917 0.226307 0.275888
1683 1 0.495739 0.854791 0.304026
382 1 0.116261 0.160163 0.368098
1053 1 0.185727 0.210306 0.356251
220 1 0.241514 0.265803 0.342742
320 1 0.449596 0.190933 0.24305
1470 1 0.16663 0.654661 0.0510165
519 1 0.219237 0.383363 0.449954
1857 1 0.394379 0.30183 0.331755
766 1 0.144101 0.414611 0.469268
1169 1 0.0718334 0.163997 0.279968
627 1 0.295799 0.385863 0.286645
67 1 0.0132841 0.549867 0.00888127
1360 1 0.228602 0.446801 0.36728
331 1 0.242972 0.309039 0.421619
938 1 0.229192 0.804718 0.045268
1113 1 0.0368611 0.511729 0.28846
1938 1 0.251562 0.306825 0.271065
1998 1 0.317039 0.527842 0.254752
561 1 0.326677 0.564005 0.0347667
422 1 0.155276 0.585513 0.376197
1687 1 0.232987 0.506396 0.425241
481 1 0.102582 0.0074136 0.471867
480 1 0.037493 0.751949 0.0727621
1256 1 0.186249 0.567847 0.445831
1663 1 0.194043 0.652451 0.435387
863 1 0.452177 0.587743 0.321477
76 1 0.0146528 0.668907 0.364355
1239 1 0.239315 0.66548 0.356652
1962 1 0.433786 0.520702 0.364345
690 1 0.230842 0.460542 0.490393
1110 1 0.0525367 0.903648 0.375358
1580 1 0.157143 0.670856 0.372542
1830 1 0.222449 0.822756 0.469597
1136 1 0.33806 0.798037 0.323156
1949 1 0.358368 0.723796 0.484812
1016 1 0.0988824 0.761077 0.41268
1106 1 0.148328 0.752152 0.342122
418 1 0.0996319 0.876904 0.306629
1504 1 0.380281 0.895283 0.441166
444 1 0.241335 0.865902 0.104756
892 1 0.388894 0.780973 0.0825889
1970 1 0.142571 0.912858 0.36675
163 1 0.290455 0.871767 0.358722
985 1 0.340366 0.93802 0.311025
764 1 0.433981 0.896425 0.289131
141 1 0.120379 0.836426 0.367035
1046 1 0.0940287 0.944569 0.429483
497 1 0.421052 0.00599119 0.35204
207 1 0.109527 0.0167495 0.320144
618 1 0.25546 0.029169 0.450192
2009 1 0.240884 0.0152723 0.376969
1754 1 0.323034 0.0366608 0.372925
787 1 0.0367488 0.983615 0.383971
889 1 0.0212346 0.921751 0.172807
184 1 0.479386 0.953713 0.380664
712 1 0.182497 0.00213756 0.466341
1920 1 0.374145 0.223518 0.358644
1408 1 0.400216 0.167692 0.432784
24 1 0.076066 0.107152 0.423281
457 1 0.326702 0.171257 0.411354
912 1 0.304658 0.431069 0.417206
854 1 0.101298 0.236983 0.0229576
122 1 0.205258 0.789402 0.117156
1616 1 0.100537 0.034002 0.396414
80 1 0.20964 0.13234 0.343576
1010 1 0.371859 0.239147 0.452181
400 1 0.392752 0.596282 0.474089
1723 1 0.259428 0.157024 0.451048
212 1 0.112003 0.15887 0.464802
1779 1 0.310882 0.314231 0.3222
910 1 0.460943 0.46886 0.172657
192 1 0.147105 0.353281 0.420845
747 1 0.179811 0.152875 0.41734
328 1 0.447756 0.0752425 0.370337
1325 1 0.0432976 0.366139 0.373366
752 1 0.464158 0.461878 0.412509
1157 1 0.394079 0.518513 0.0644747
2011 1 0.290288 0.363008 0.384602
534 1 0.216531 0.89017 0.401833
590 1 0.100325 0.498855 0.346566
1959 1 0.358258 0.824897 0.465179
115 1 0.299183 0.447753 0.33291
988 1 0.389221 0.592431 0.37221
1333 1 0.359325 0.365257 0.441059
1317 1 0.115677 0.627367 0.454209
460 1 0.385956 0.681404 0.322822
1245 1 0.307419 0.610172 0.362478
458 1 0.166826 0.0201922 0.0296644
1859 1 0.0430763 0.768302 0.198117
630 1 0.443689 0.240016 0.397976
1497 1 0.460076 0.5829 0.0585826
2037 1 0.44966 0.435274 0.489812
1375 1 0.25663 0.735464 0.413509
1570 1 0.366061 0.66835 0.394297
1926 1 0.0150254 0.248491 0.13645
1576 1 0.463231 0.58804 0.42541
1649 1 0.228242 0.0897709 0.407751
1892 1 0.194824 0.792756 0.383364
222 1 0.194447 0.870522 0.324033
1163 1 0.423333 0.808889 0.417884
557 1 0.496134 0.172579 0.180109
695 1 0.00639425 0.816053 0.135322
1118 1 0.462794 0.113621 0.231077
763 1 0.404125 0.913929 0.358161
879 1 0.419003 0.136581 0.0920548
411 1 0.29079 0.808579 0.410019
1319 1 0.0698151 0.880039 0.475967
1971 1 0.453758 0.0237592 0.131934
1019 1 0.488717 0.175622 0.49282
1524 1 0.321146 0.949652 0.387758
267 1 0.0491575 0.876685 0.0952466
417 1 0.0205447 0.133405 0.0314421
1797 1 0.0434542 0.194545 0.414044
951 1 0.400374 0.433414 0.0309714
341 1 0.0468934 0.819493 0.420477
1367 1 0.188188 0.872582 0.0437989
1623 1 0.446224 0.875426 0.483209
1718 1 0.0466551 0.652936 0.203257
1421 1 0.0901666 0.295131 0.440129
523 1 0.302218 0.254161 0.389595
477 1 0.020526 0.10415 0.496457
644 1 0.425815 0.50734 0.478338
257 1 0.147249 0.845362 0.442507
1234 1 0.249305 0.202145 0.0490327
1187 1 0.44096 0.0218905 0.453676
655 1 0.194562 0.947785 0.0937856
1973 1 0.472594 0.515527 0.289389
1120 1 0.442629 0.648438 0.381169
1627 1 0.252389 0.520808 0.094148
881 1 0.482527 0.954008 0.461089
1291 1 0.405116 0.307159 0.410896
540 1 0.209638 0.364333 0.363428
1357 1 0.227329 0.900747 0.499368
1499 1 0.110121 0.544262 0.427977
85 1 0.238927 0.952542 0.444643
496 1 0.330279 0.546731 0.121818
1093 1 0.4856 0.299551 0.196286
609 1 0.38605 0.455646 0.404161
1391 1 0.398471 0.959758 0.491477
401 1 0.170411 0.735011 0.436476
1676 1 0.105118 0.368941 0.172405
1605 1 0.34285 0.875958 0.067014
1733 1 0.0957022 0.428693 0.396008
1281 1 0.102895 0.788281 0.291897
572 1 0.0208668 0.0379574 0.0724558
182 1 0.0265739 0.608223 0.0856512
2020 1 0.251968 0.547467 0.0239694
611 1 0.0121575 0.584546 0.23154
1911 1 0.474224 0.728708 0.0895336
781 1 0.331192 0.77412 0.0296098
737 1 0.311004 0.958403 0.468134
560 1 0.479336 0.756513 0.00995327
964 1 0.0500898 0.645625 0.491931
10 1 0.0223921 0.293783 0.203991
1188 1 0.34589 0.175457 0.488648
1500 1 0.490211 0.748452 0.415594
1871 1 0.0915434 0.663179 0.0115479
1302 1 0.187896 0.589027 0.00524269
271 1 0.368964 0.941096 0.0164624
1332 1 0.438098 0.340614 0.00847728
588 1 0.164094 0.372062 0.00325777
1600 1 0.142167 0.520895 0.0037287
905 1 0.416119 0.128769 0.498879
700 1 0.478883 0.407183 0.00340273
848 1 0.429932 0.671197 0.496389
1898 1 0.449411 0.301818 0.748309
1484 1 0.143627 0.599443 0.533175
1594 1 0.3622 0.975609 0.560838
1284 1 0.449287 0.184521 0.841902
797 1 0.453828 0.50995 0.555318
63 1 0.278687 0.0638771 0.653403
982 1 0.496141 0.377682 0.621489
1220 1 0.281899 0.111278 0.591072
1839 1 0.196541 0.288627 0.883023
364 1 0.398884 0.241104 0.80309
1034 1 0.297081 0.20339 0.590435
255 1 0.423383 0.177451 0.583014
1526 1 0.286792 0.27753 0.994547
1550 1 0.201013 0.101306 0.632043
100 1 0.178842 0.727193 0.634335
231 1 0.305154 0.318075 0.929623
587 1 0.420476 0.275243 0.569777
506 1 0.27476 0.990063 0.596382
580 1 0.365203 0.00323299 0.966955
140 1 0.264838 0.270364 0.659828
930 1 0.465981 0.473549 0.942855
955 1 0.3219 0.411399 0.563262
1040 1 0.401328 0.388795 0.958599
38 1 0.295223 0.935185 0.53906
1645 1 0.244744 0.378849 0.563501
754 1 0.497796 0.527932 0.643253
1943 1 0.483772 0.195186 0.626252
553 1 0.146477 0.0227692 0.541912
1430 1 0.296901 0.490887 0.994447
1450 1 0.143413 0.264554 0.620105
350 1 0.336924 0.471154 0.639648
1301 1 0.340486 0.203193 0.659616
1475 1 0.381677 0.488475 0.549757
394 1 0.429702 0.0647032 0.956805
1381 1 0.0612917 0.534258 0.579049
1186 1 0.355528 0.12689 0.552941
1205 1 0.230853 0.648858 0.63863
1572 1 0.0461958 0.878976 0.700201
640 1 0.0764204 0.528964 0.943256
555 1 0.220205 0.714136 0.565185
1412 1 0.0487922 0.0758751 0.621847
1796 1 0.0750222 0.046521 0.533774
692 1 0.233832 0.643973 0.504066
512 1 0.233624 0.589325 0.939056
1850 1 0.13998 0.721433 0.555492
1509 1 0.294473 0.764895 0.577991
911 1 0.124159 0.00423361 0.960396
1636 1 0.27403 0.746169 0.97823
808 1 0.426368 0.57065 0.987264
814 1 0.11869 0.991269 0.676425
92 1 0.357984 0.302809 0.77818
397 1 0.475298 0.89278 0.630637
1087 1 0.0875815 0.873597 0.564839
1127 1 0.488493 0.298724 0.614019
1934 1 0.306141 0.685983 0.530848
1438 1 0.476162 0.365117 0.812688
492 1 0.15943 0.921439 0.660012
1108 1 0.0414053 0.805991 0.764215
2005 1 0.369529 0.859724 0.608369
412 1 0.227363 0.0577066 0.575205
631 1 0.0904945 0.0667766 0.696563
461 1 0.296735 0.975541 0.685932
2 1 0.160547 0.66891 0.504211
111 1 0.166833 0.0745777 0.692468
776 1 0.207703 0.10872 0.790834
1191 1 0.15108 0.1051 0.544482
1393 1 0.426414 0.0328394 0.630783
1214 1 0.0631955 0.253535 0.540859
28 1 0.210345 0.159653 0.56646
1981 1 0.261313 0.167995 0.658385
1251 1 0.419926 0.129024 0.641414
583 1 0.447113 0.088652 0.578241
1278 1 0.386208 0.635461 0.981854
567 1 0.27026 0.177091 0.742878
533 1 0.0769958 0.125563 0.545262
7 1 0.279997 0.16087 0.529775
151 1 0.368503 0.430819 0.73686
203 1 0.0664263 0.28443 0.630414
1961 1 0.342582 0.119036 0.639538
742 1 0.233304 0.344993 0.641793
318 1 0.220824 0.248831 0.737804
1837 1 0.352659 0.299595 0.671255
1305 1 0.419297 0.352426 0.617145
563 1 0.414118 0.223248 0.645953
516 1 0.142207 0.342144 0.622065
569 1 0.300098 0.472831 0.708036
2047 1 0.285724 0.412494 0.637316
1452 1 0.121124 0.968823 0.593469
885 1 0.25582 0.455223 0.579252
1226 1 0.277134 0.53861 0.576446
1158 1 0.403362 0.6313 0.610981
1151 1 0.0194498 0.846401 0.534164
1222 1 0.273898 0.578535 0.651638
1335 1 0.272763 0.622139 0.565878
434 1 0.366798 0.639002 0.538982
634 1 0.087411 0.443997 0.531443
31 1 0.150958 0.651142 0.594504
327 1 0.345245 0.652829 0.658548
1543 1 0.00112213 0.329652 0.613022
917 1 0.430526 0.708716 0.622724
1385 1 0.48132 0.547869 0.855413
1900 1 0.150563 0.784508 0.691721
578 1 0.397732 0.778344 0.632811
995 1 0.450752 0.744438 0.548255
309 1 0.149074 0.815011 0.59183
1927 1 0.432543 0.808808 0.746173
205 1 0.0809822 0.785821 0.572081
521 1 0.236682 0.937197 0.648392
1689 1 0.323251 0.815508 0.6821
1073 1 0.166026 0.857708 0.525974
1835 1 0.049221 1.00019 0.613593
337 1 0.450989 0.820614 0.59413
88 1 0.493829 0.982214 0.860293
369 1 0.176939 0.992251 0.729529
840 1 0.195953 0.972182 0.596944
1105 1 0.379796 0.968265 0.635573
860 1 0.0773387 0.0209725 0.760991
110 1 0.315295 0.919686 0.627809
946 1 0.140093 0.200998 0.556556
2038 1 0.136072 0.059944 0.608846
1286 1 0.195472 0.0292443 0.805833
943 1 0.395674 0.962274 0.733945
1968 1 0.429715 0.0741752 0.70057
1085 1 0.00886849 0.415722 0.929429
1259 1 0.0566856 0.142106 0.698746
2017 1 0.0992988 0.0818433 0.842718
2015 1 0.240635 0.041579 0.738722
694 1 0.348994 0.0365062 0.68905
1843 1 0.417994 0.307307 0.938462
468 1 0.0668206 0.21068 0.609084
314 1 0.381522 0.135917 0.712451
893 1 0.369404 0.72364 0.563399
169 1 0.347595 0.0399389 0.601793
1171 1 0.294883 0.346086 0.692477
1130 1 0.208415 0.222144 0.615946
1615 1 0.326092 0.340009 0.601692
211 1 0.277885 0.400006 0.748417
225 1 0.493766 0.0522776 0.914241
594 1 0.0656482 0.22288 0.685789
285 1 0.15643 0.178236 0.648039
1544 1 0.299614 0.453645 0.800658
1729 1 0.383885 0.339224 0.535247
769 1 0.480965 0.32019 0.880426
272 1 0.13766 0.294973 0.54393
143 1 0.0648123 0.951689 0.957885
64 1 0.353293 0.261076 0.604123
1330 1 0.406949 0.44235 0.672021
1100 1 0.473429 0.579985 0.584981
173 1 0.460134 0.958855 0.787723
70 1 0.189224 0.408224 0.613384
197 1 0.339321 0.587841 0.594613
2023 1 0.172884 0.455066 0.548126
859 1 0.409644 0.683842 0.696328
106 1 0.208345 0.242668 0.53476
196 1 0.455395 0.941742 0.68722
410 1 0.076143 0.635844 0.64509
1482 1 0.256374 0.757205 0.652007
1323 1 0.288919 0.692604 0.608187
720 1 0.369776 0.76417 0.733077
1018 1 0.452219 0.754618 0.683441
761 1 0.467206 0.0932262 0.760219
1986 1 0.122783 0.70695 0.696508
706 1 0.354088 0.726777 0.667656
825 1 0.318095 0.79775 0.782229
849 1 0.211202 0.820939 0.640104
1955 1 0.267003 0.321172 0.51552
194 1 0.0213438 0.772529 0.624138
1947 1 0.210897 0.0169379 0.662603
1924 1 0.215704 0.890901 0.577428
1380 1 0.286959 0.848755 0.598656
413 1 0.246126 0.955389 0.744043
520 1 0.45613 0.937122 0.985723
599 1 0.00753249 0.79083 0.985418
1937 1 0.014902 0.611155 0.77581
284 1 0.14267 0.0710162 0.770168
792 1 0.332415 0.00602349 0.75948
61 1 0.30271 0.110507 0.712972
236 1 0.0686253 0.10214 0.767327
610 1 0.291582 0.0838882 0.789314
1601 1 0.394169 0.238395 0.722373
934 1 0.190131 0.288072 0.67518
426 1 0.205 0.144471 0.708106
788 1 0.337772 0.158897 0.773371
980 1 0.0289271 0.323924 0.71252
1778 1 0.313807 0.250504 0.721724
187 1 0.101601 0.291457 0.69837
998 1 0.140187 0.364457 0.805258
1565 1 0.473386 0.637951 0.744308
1766 1 0.331387 0.551297 0.507749
1426 1 0.112739 0.432175 0.605649
549 1 0.357222 0.388502 0.655465
536 1 0.222895 0.472281 0.747626
908 1 0.239669 0.390596 0.823549
1977 1 0.381877 0.437444 0.842446
157 1 0.0404763 0.460436 0.624461
696 1 0.145003 0.385057 0.553917
1950 1 0.0691869 0.348804 0.566346
79 1 0.106175 0.499408 0.642141
1396 1 0.341799 0.527448 0.800347
159 1 0.411049 0.58089 0.739969
1629 1 0.371586 0.510889 0.700086
1354 1 0.165917 0.473634 0.69287
575 1 0.204555 0.554887 0.671234
162 1 0.290855 0.547021 0.737117
2032 1 0.467657 0.594851 0.666872
974 1 0.00141325 0.276057 0.980859
399 1 0.18503 0.487954 0.616803
91 1 0.498427 0.799083 0.934661
1855 1 0.0568812 0.55766 0.655079
1414 1 0.13757 0.575973 0.629232
958 1 0.231647 0.617955 0.709978
1210 1 0.442414 0.721901 0.765358
1370 1 0.200402 0.712677 0.708393
999 1 0.286931 0.665579 0.718879
727 1 0.0468681 0.697484 0.552288
1413 1 0.431161 0.840417 0.670007
1292 1 0.293945 0.741064 0.725012
1829 1 0.362733 0.847566 0.746555
746 1 0.186691 0.862728 0.703886
837 1 0.258179 0.881265 0.77463
922 1 0.318568 0.814613 0.859587
680 1 0.274746 0.882572 0.688472
293 1 0.0426095 0.852599 0.623308
799 1 0.23617 0.984036 0.526887
846 1 0.0766625 0.920697 0.637472
615 1 0.117814 0.927792 0.730839
1182 1 0.247126 0.812281 0.713071
1268 1 0.325324 0.926691 0.74222
2046 1 0.429002 0.885207 0.772258
813 1 0.107354 0.847915 0.743318
1786 1 0.185995 0.910235 0.771229
1270 1 0.368459 0.946882 0.804625
1168 1 0.468731 0.0920023 0.844537
438 1 0.392295 0.355787 0.720674
1801 1 0.0573229 0.95469 0.8175
367 1 0.209682 0.133104 0.86201
1091 1 0.410018 0.0403891 0.769573
1861 1 0.0910756 0.547168 0.506937
732 1 0.0208104 0.714006 0.991604
1581 1 0.142115 0.123539 0.905235
646 1 0.379443 0.109282 0.821991
508 1 0.419342 0.140461 0.898981
709 1 0.147486 0.220573 0.720993
454 1 0.275417 0.168301 0.824662
1096 1 0.081538 0.268442 0.780205
301 1 0.156464 0.298615 0.755146
1503 1 0.276167 0.325377 0.766315
319 1 0.00578184 0.550287 0.723187
1818 1 0.15251 0.390348 0.680988
577 1 0.419536 0.310758 0.826465
1322 1 0.0892755 0.435771 0.683224
997 1 0.285253 0.30852 0.840724
424 1 0.381279 0.498089 0.993389
642 1 0.070146 0.36312 0.65484
295 1 0.223948 0.422143 0.685706
783 1 0.159631 0.423057 0.750347
545 1 0.258286 0.516518 0.811797
1227 1 0.452172 0.472366 0.853625
463 1 0.13866 0.527475 0.567324
1183 1 0.136872 0.568384 0.715102
1133 1 0.257207 0.504026 0.649472
1125 1 0.413226 0.645104 0.794931
316 1 0.0836469 0.576598 0.783247
1003 1 0.328843 0.668101 0.929488
493 1 0.369994 0.666693 0.862861
1874 1 0.485616 0.448794 0.639522
743 1 0.0502923 0.733349 0.751037
1273 1 0.154163 0.638411 0.674932
1908 1 0.0187195 0.725107 0.904345
1369 1 0.499802 0.838423 0.799534
1021 1 0.379844 0.582124 0.66805
244 1 0.381934 0.733726 0.822504
1906 1 0.0150038 0.749279 0.822404
1334 1 0.281547 0.748632 0.845099
209 1 0.0732116 0.779027 0.677924
1547 1 0.178389 0.806837 0.762145
1289 1 0.377045 0.898033 0.680166
1941 1 0.385923 0.81482 0.815782
1013 1 0.111065 0.844229 0.664659
779 1 0.251635 0.822197 0.821035
241 1 0.25748 0.84845 0.898277
252 1 0.188431 0.887166 0.865977
1584 1 0.0357792 0.977127 0.888536
325 1 0.131274 0.856068 0.819908
1567 1 0.139179 0.967063 0.796503
167 1 0.287831 0.854923 0.51369
439 1 0.102182 0.00506784 0.859035
1602 1 0.292415 0.96033 0.809175
440 1 0.278791 0.279249 0.579676
1957 1 0.130582 0.144403 0.734442
113 1 0.107208 0.221907 0.876896
679 1 0.310948 0.105819 0.863387
1124 1 0.0774451 0.191822 0.765748
1185 1 0.133145 0.155528 0.829557
1327 1 0.285419 0.165673 0.904575
102 1 0.316289 0.238828 0.798642
366 1 0.088078 0.382402 0.744474
232 1 0.347481 0.189649 0.853248
1004 1 0.231736 0.365101 0.908445
1519 1 0.207097 0.353913 0.732011
32 1 0.442105 0.243766 0.898763
2010 1 0.140262 0.502682 0.764556
1775 1 0.284441 0.429339 0.875632
1875 1 0.328178 0.377654 0.823249
1359 1 0.204909 0.473473 0.859912
518 1 0.270737 0.506775 0.90586
744 1 0.403419 0.388074 0.7904
206 1 0.349824 0.50791 0.876844
1429 1 0.0712281 0.501074 0.72907
1347 1 0.174482 0.63883 0.759732
1703 1 0.337228 0.613177 0.736005
1752 1 0.145818 0.595666 0.824006
361 1 0.323408 0.550682 0.949298
1219 1 0.293233 0.591505 0.886502
807 1 0.345791 0.611081 0.813046
1651 1 0.100441 0.661934 0.801936
765 1 0.268896 0.612917 0.801255
1793 1 0.207262 0.0108362 0.962125
798 1 0.226977 0.681016 0.806176
208 1 0.247772 0.696064 0.928032
1680 1 0.404136 0.567275 0.547994
105 1 0.151963 0.717836 0.784927
20 1 0.290761 0.667258 0.860322
939 1 0.330784 0.690666 0.788088
450 1 0.425852 0.766337 0.903575
753 1 0.0996341 0.129999 0.619495
179 1 0.235079 0.755804 0.781914
2019 1 0.012888 0.325646 0.522327
1371 1 0.113949 0.781915 0.797371
1681 1 0.167829 0.976448 0.893542
1094 1 0.0641856 0.812436 0.871029
1451 1 0.265135 0.923592 0.872546
645 1 0.423631 0.913252 0.861345
1341 1 0.159847 0.94081 0.52925
233 1 0.0693406 0.0915598 0.987142
1439 1 0.0918467 0.0586279 0.915603
820 1 0.136246 0.920595 0.942672
603 1 0.355561 0.978103 0.894348
944 1 0.00833752 0.0127211 0.532196
987 1 0.1703 0.0540166 0.873761
1648 1 0.214502 0.956438 0.823874
1407 1 0.25807 0.0234725 0.851888
1749 1 0.412576 0.00636028 0.845047
1555 1 0.482482 0.421746 0.76088
598 1 0.48809 0.233695 0.549622
1443 1 0.361885 0.177803 0.9336
1686 1 0.147868 0.243059 0.8084
277 1 0.195011 0.186082 0.780875
1088 1 0.230383 0.248647 0.821477
926 1 0.158358 0.358067 0.882954
1928 1 0.460692 0.38301 0.690774
389 1 0.104677 0.299167 0.850207
1293 1 0.179617 0.203525 0.8688
1953 1 0.209775 0.324544 0.809532
317 1 0.492037 0.415717 0.89457
1345 1 0.0340311 0.333438 0.798361
1308 1 0.423017 0.377971 0.87194
1303 1 0.446426 0.520442 0.698017
1966 1 0.135529 0.448852 0.823581
499 1 0.10881 0.523226 0.841497
175 1 0.20388 0.434727 0.927993
546 1 0.491999 0.285329 0.975432
1826 1 0.0506198 0.447351 0.782759
1218 1 0.216648 0.631292 0.872429
1722 1 0.373795 0.603204 0.904983
495 1 0.484639 0.918959 0.909771
473 1 0.409626 0.561557 0.826294
600 1 0.476174 0.593827 0.508313
1836 1 0.164041 0.771245 0.505701
469 1 0.271792 0.849173 0.989325
1420 1 0.489737 0.808633 0.520278