ITEM: TIMESTEP
100000
ITEM: NUMBER OF ATOMS
2048
ITEM: BOX BOUNDS pp pp pp
0.0000000000000000e+00 1.1093780389610155e+01
0.0000000000000000e+00 1.1093780389610155e+01
0.0000000000000000e+00 1.1093780389610155e+01
ITEM: ATOMS id type xs ys zs
135 1 0.18571 0.0029943 0.185812
20 1 0.497189 0.0607499 0.0576187
66 1 0.0618234 0.309657 0.00218526
1411 1 0.0631129 0.500036 0.437566
35 1 0.0593963 0.122354 0.0611223
1433 1 0.75211 0.498456 0.373184
8 1 0.123484 0.0607446 0.0600237
1035 1 0.312849 0.498924 0.0648225
51 1 0.562782 0.125609 0.0630767
59 1 0.810778 0.126582 0.0565037
1409 1 1.00024 0.497679 0.376069
63 1 0.937751 0.121627 0.0640175
139 1 0.310129 0.00219443 0.185835
4 1 0.998464 0.0600874 0.0651537
141 1 0.372973 0.00477667 0.124844
44 1 0.248738 0.188782 0.0627937
48 1 0.370798 0.186559 0.0626125
58 1 0.81672 0.19281 0.00290715
1423 1 0.439914 0.497663 0.436969
2 1 0.0593568 0.0611786 0.00209635
89 1 0.746412 0.249344 0.00566401
71 1 0.187016 0.24965 0.0614202
75 1 0.314142 0.252932 0.0604278
52 1 0.497603 0.18782 0.0627744
18 1 0.560665 0.0608313 0.000385199
277 1 0.63167 0.000993621 0.248759
91 1 0.813511 0.250468 0.0659796
36 1 -0.000693341 0.186777 0.0596139
405 1 0.631307 0.00272441 0.374064
68 1 -0.00218163 0.312323 0.0632372
114 1 0.564884 0.438484 0.00231611
76 1 0.254165 0.318666 0.0604811
80 1 0.376548 0.316442 0.0645273
79 1 0.433012 0.251388 0.0586751
389 1 0.123249 0.00207803 0.376128
1417 1 0.248825 0.498704 0.373145
95 1 0.938429 0.250383 0.0660118
69 1 0.124945 0.24988 -0.00141796
72 1 0.124785 0.313035 0.062955
395 1 0.315413 0.00242109 0.437441
1437 1 0.879632 0.492636 0.374187
1429 1 0.621681 0.497065 0.377076
100 1 0.997957 0.438407 0.0610477
585 1 0.249567 0.251199 0.496208
42 1 0.311878 0.190831 0.000381475
111 1 0.437439 0.380861 0.0633054
558 1 0.440126 0.18276 0.496286
1163 1 0.313915 0.501714 0.188398
19 1 0.560054 0.00190961 0.0633996
267 1 0.311442 0.0038505 0.315857
62 1 0.939572 0.187507 0.00239075
108 1 0.250343 0.435298 0.0551455
512 1 0.877221 0.437936 0.439668
1283 1 0.0629458 0.497231 0.308282
1291 1 0.306649 0.494618 0.309967
1309 1 0.876734 0.49295 0.254141
1307 1 0.811772 0.497708 0.311857
1031 1 0.189792 0.498705 0.0598465
586 1 0.307678 0.314201 0.498232
124 1 0.749834 0.440463 0.0624206
557 1 0.378303 0.123559 0.498889
12 1 0.246277 0.0630245 0.0615605
138 1 0.311661 0.0640818 0.125187
16 1 0.372658 0.0652498 0.0611327
538 1 0.810354 0.0616818 0.501098
113 1 0.497984 0.380092 -0.00063187
24 1 0.626501 0.0645387 0.0612287
488 1 0.130807 0.438905 0.435386
28 1 0.750394 0.0628383 0.0642944
145 1 0.500119 -0.00201563 0.124725
158 1 0.936503 0.0611126 0.128821
130 1 0.0624911 0.060091 0.12404
39 1 0.189224 0.129862 0.0586216
43 1 0.307814 0.123139 0.0617167
47 1 0.433457 0.125657 0.0644073
146 1 0.563211 0.0618236 0.122832
55 1 0.687735 0.125228 0.0653678
32 1 0.876608 0.0626046 0.0596369
40 1 0.120653 0.186435 0.061957
165 1 0.12112 0.125096 0.123573
166 1 0.186453 0.189831 0.122817
169 1 0.252133 0.123999 0.128097
177 1 0.497022 0.128079 0.126035
56 1 0.62364 0.18589 0.0625318
64 1 0.880128 0.185592 0.0648742
161 1 0.00160273 0.122279 0.125552
197 1 0.124811 0.251726 0.128259
201 1 0.252266 0.248798 0.123119
170 1 0.312958 0.187833 0.12407
178 1 0.562045 0.187449 0.126591
60 1 0.753587 0.192274 0.0638221
67 1 0.0622846 0.252401 0.0641846
194 1 0.0594868 0.316383 0.125867
198 1 0.188916 0.318223 0.122807
83 1 0.565237 0.250358 0.059771
87 1 0.681726 0.250903 0.0645108
221 1 0.874631 0.249881 0.126591
103 1 0.185373 0.377157 0.0600938
202 1 0.316835 0.315105 0.127337
237 1 0.377796 0.378735 0.128619
84 1 0.499579 0.316178 0.0598288
88 1 0.626166 0.317195 0.0630025
92 1 0.75004 0.31158 0.0635019
96 1 0.875412 0.312593 0.0618659
225 1 0.000719813 0.377638 0.129491
99 1 0.0610213 0.37425 0.0598226
229 1 0.122045 0.376579 0.123243
104 1 0.123703 0.437062 0.061559
107 1 0.317406 0.378851 0.0651534
115 1 0.561253 0.379568 0.0647621
119 1 0.686067 0.37691 0.0633076
123 1 0.812535 0.377561 0.062599
127 1 0.937066 0.37234 0.060426
226 1 0.0615861 0.439134 0.12325
112 1 0.373637 0.440595 0.0625332
1159 1 0.189707 0.501191 0.187087
116 1 0.504786 0.443195 0.0678655
120 1 0.627279 0.441251 0.064224
1289 1 0.249552 0.49804 0.24962
1183 1 0.933543 0.49776 0.190742
128 1 0.873925 0.438576 0.0610878
254 1 0.935424 0.438196 0.122787
140 1 0.250241 0.0650712 0.188967
142 1 0.437019 0.0631135 0.122161
148 1 0.499696 0.0606756 0.18727
1415 1 0.190705 0.496668 0.43306
152 1 0.628114 0.0616681 0.186928
65 1 0.00166396 0.248322 0.000400738
156 1 0.749958 0.0590975 0.183511
391 1 0.192 0.000989843 0.4368
154 1 0.811921 0.0636121 0.125634
511 1 0.937834 0.374527 0.444498
132 1 0.99906 0.0610586 0.18939
163 1 0.063171 0.12617 0.185209
134 1 0.186797 0.067438 0.122271
144 1 0.375738 0.0628915 0.186288
175 1 0.442555 0.123725 0.192138
179 1 0.562453 0.127178 0.189853
150 1 0.685585 0.0604659 0.124338
189 1 0.87027 0.126306 0.123897
172 1 0.247158 0.18846 0.185176
171 1 0.31284 0.123116 0.189984
173 1 0.372596 0.124148 0.125352
181 1 0.624198 0.124512 0.125671
185 1 0.748141 0.124354 0.125247
186 1 0.813445 0.19199 0.132076
192 1 0.878912 0.18773 0.190283
162 1 0.0607713 0.189941 0.123925
168 1 0.122019 0.186235 0.186738
176 1 0.375727 0.189653 0.189649
174 1 0.434656 0.183084 0.127751
182 1 0.687991 0.190687 0.124663
217 1 0.747143 0.250213 0.126631
190 1 0.938057 0.18753 0.121459
193 1 0.00197162 0.253446 0.125391
164 1 0.999092 0.189074 0.183515
195 1 0.0656091 0.249151 0.19038
204 1 0.255377 0.315467 0.18584
205 1 0.377447 0.250427 0.125775
206 1 0.443718 0.313469 0.125775
209 1 0.500043 0.24531 0.122955
213 1 0.62271 0.253276 0.122029
218 1 0.809224 0.310041 0.125872
200 1 0.122464 0.313892 0.186535
210 1 0.56173 0.314563 0.1214
243 1 0.56099 0.375014 0.186856
245 1 0.62007 0.380132 0.119787
214 1 0.687313 0.31399 0.125123
222 1 0.932497 0.317878 0.128452
196 1 0.998584 0.317158 0.18719
227 1 0.0648212 0.376785 0.185773
230 1 0.184939 0.437058 0.123557
233 1 0.250333 0.38166 0.120232
240 1 0.374722 0.441979 0.18994
239 1 0.439299 0.38218 0.188958
241 1 0.501711 0.378107 0.123204
242 1 0.56409 0.443039 0.126277
246 1 0.685804 0.440033 0.125235
249 1 0.746962 0.374485 0.124438
251 1 0.809694 0.372016 0.184302
250 1 0.811947 0.440092 0.121107
253 1 0.871185 0.378226 0.123542
232 1 0.124147 0.440479 0.184657
236 1 0.251786 0.440989 0.182582
507 1 0.817433 0.374182 0.445081
234 1 0.313522 0.438042 0.127016
238 1 0.437658 0.441727 0.123163
1413 1 0.124388 0.498434 0.377364
248 1 0.625098 0.439139 0.188475
508 1 0.754713 0.437727 0.436689
256 1 0.872947 0.437774 0.189569
258 1 0.0612832 0.059834 0.247177
136 1 0.126217 0.0630035 0.186398
1311 1 0.941859 0.498853 0.31227
270 1 0.436863 0.0566038 0.251202
495 1 0.438938 0.377139 0.434961
282 1 0.807954 0.060414 0.245516
160 1 0.876383 0.0618474 0.188104
286 1 0.938714 0.0625325 0.250705
293 1 0.125979 0.122042 0.250108
297 1 0.249126 0.126021 0.250257
266 1 0.308968 0.0621838 0.251347
301 1 0.376648 0.12636 0.249048
274 1 0.567616 0.0621564 0.249169
313 1 0.749556 0.12166 0.251373
191 1 0.935321 0.125868 0.184967
289 1 0.996518 0.125942 0.249185
167 1 0.184132 0.123661 0.18664
298 1 0.312423 0.190794 0.251173
305 1 0.504922 0.122639 0.252262
309 1 0.624763 0.126789 0.248062
183 1 0.687205 0.12344 0.18664
187 1 0.815823 0.122891 0.189335
314 1 0.809068 0.185026 0.250614
318 1 0.939536 0.18574 0.24642
321 1 -0.00154092 0.249654 0.247866
290 1 0.0640191 0.185807 0.251614
199 1 0.185946 0.252448 0.187643
329 1 0.252071 0.252147 0.246906
203 1 0.313849 0.250917 0.184387
302 1 0.437506 0.187866 0.250985
180 1 0.498297 0.193062 0.190594
184 1 0.626535 0.191602 0.187429
341 1 0.62328 0.250493 0.250623
188 1 0.750453 0.187456 0.189327
219 1 0.811738 0.251713 0.188913
349 1 0.872417 0.251189 0.253526
326 1 0.188081 0.314783 0.249232
207 1 0.442241 0.253976 0.185197
211 1 0.561408 0.252613 0.188873
215 1 0.688015 0.247792 0.184735
223 1 0.937522 0.251997 0.185506
322 1 0.0575955 0.315485 0.247114
330 1 0.31305 0.314686 0.246849
208 1 0.375609 0.310869 0.186975
212 1 0.503186 0.315521 0.191108
338 1 0.560134 0.310578 0.251028
216 1 0.62225 0.313497 0.181138
220 1 0.747735 0.312943 0.186821
346 1 0.810118 0.31332 0.248415
224 1 0.87564 0.314905 0.186198
357 1 0.126308 0.375851 0.25363
231 1 0.195932 0.377047 0.186957
361 1 0.248945 0.37727 0.247377
235 1 0.315166 0.376384 0.186298
362 1 0.311074 0.436284 0.248274
244 1 0.501749 0.439578 0.191287
247 1 0.688627 0.374564 0.185737
252 1 0.746802 0.437802 0.184061
378 1 0.807838 0.436701 0.246555
255 1 0.937486 0.379392 0.187111
382 1 0.934745 0.433481 0.254993
358 1 0.188509 0.439547 0.246862
492 1 0.248122 0.434661 0.438492
480 1 0.877194 0.312979 0.436359
7 1 0.184089 0.00239129 0.0628233
228 1 0.00377637 0.439276 0.182668
263 1 0.189209 -0.00100757 0.309897
262 1 0.184835 0.0641593 0.254413
1281 1 0.00307953 0.498465 0.248949
280 1 0.628038 0.0628959 0.311474
27 1 0.809682 0.00315152 0.0662488
1287 1 0.186618 0.499996 0.310246
272 1 0.372554 0.0644776 0.311077
276 1 0.503969 0.0590743 0.313283
307 1 0.562836 0.121524 0.312446
278 1 0.691005 0.0627621 0.246155
284 1 0.749087 0.0618433 0.312684
315 1 0.814017 0.125825 0.311913
319 1 0.940718 0.123732 0.316192
291 1 0.0581945 0.122167 0.314382
294 1 0.187767 0.188413 0.24651
295 1 0.187632 0.127717 0.310611
299 1 0.309615 0.128508 0.308854
304 1 0.373148 0.18522 0.31142
303 1 0.436865 0.122756 0.313455
308 1 0.500127 0.182565 0.314335
310 1 0.686783 0.189334 0.248571
317 1 0.875497 0.122438 0.250928
292 1 0.998803 0.186134 0.314926
325 1 0.128631 0.248984 0.252654
327 1 0.186846 0.251418 0.31164
300 1 0.24671 0.190697 0.308429
331 1 0.316741 0.250223 0.308155
337 1 0.497286 0.248934 0.255593
306 1 0.559341 0.184493 0.251474
320 1 0.872679 0.188688 0.309736
323 1 0.0623309 0.247444 0.309499
332 1 0.251729 0.31341 0.30905
333 1 0.378313 0.249572 0.245494
335 1 0.432671 0.247904 0.315911
345 1 0.74887 0.249796 0.250151
347 1 0.81019 0.24655 0.311036
352 1 0.871348 0.313348 0.311033
351 1 0.937353 0.248465 0.310452
324 1 0.998241 0.311013 0.31016
328 1 0.123608 0.310363 0.312732
363 1 0.312389 0.376696 0.312806
336 1 0.372042 0.311055 0.313172
334 1 0.436087 0.318719 0.250508
369 1 0.499355 0.381257 0.253038
342 1 0.685141 0.30658 0.248417
377 1 0.747677 0.372985 0.251102
348 1 0.749368 0.308234 0.312556
350 1 0.935664 0.314786 0.250201
353 1 1.00002 0.380569 0.246044
360 1 0.124377 0.437206 0.309593
365 1 0.372486 0.376764 0.249569
366 1 0.430896 0.438827 0.252905
367 1 0.430139 0.376687 0.313036
370 1 0.562536 0.441097 0.253143
373 1 0.62217 0.369531 0.248513
374 1 0.687662 0.437954 0.24775
375 1 0.686261 0.374764 0.312328
381 1 0.871435 0.371342 0.248021
354 1 0.0663248 0.43669 0.248596
364 1 0.24878 0.436306 0.311695
74 1 0.315896 0.317804 0.000811964
372 1 0.494741 0.440166 0.314208
376 1 0.625971 0.437182 0.307837
73 1 0.253048 0.253285 0.00249001
121 1 0.749894 0.376328 0.000588737
464 1 0.375323 0.3131 0.440748
386 1 0.0592856 0.0604853 0.37578
554 1 0.313745 0.19264 0.499051
491 1 0.314406 0.374598 0.439507
101 1 0.122667 0.373576 -2.94855e-05
487 1 0.186961 0.372742 0.43436
288 1 0.877352 0.0615833 0.312071
414 1 0.936641 0.0596126 0.377685
260 1 0.00099985 0.0624801 0.310131
264 1 0.124118 0.0618037 0.313723
268 1 0.248896 0.0655185 0.313083
394 1 0.314004 0.0652049 0.375583
429 1 0.376968 0.12426 0.374155
398 1 0.432229 0.0628916 0.375254
437 1 0.626947 0.123548 0.372449
406 1 0.690595 0.0595674 0.374223
417 1 -0.00144502 0.123915 0.381585
296 1 0.124064 0.184731 0.313307
425 1 0.248693 0.127059 0.371774
430 1 0.438615 0.184127 0.376176
311 1 0.688979 0.12531 0.315304
442 1 0.813818 0.188368 0.37613
445 1 0.878192 0.124723 0.374109
446 1 0.941189 0.184976 0.379974
426 1 0.315112 0.189782 0.374432
465 1 0.500469 0.249736 0.372008
434 1 0.563682 0.183955 0.374772
312 1 0.622115 0.186654 0.309579
316 1 0.74817 0.186761 0.310853
453 1 0.120555 0.248391 0.37874
457 1 0.249565 0.249018 0.370756
461 1 0.375263 0.253683 0.376713
339 1 0.56124 0.246513 0.312259
469 1 0.628396 0.25226 0.372066
343 1 0.684922 0.245773 0.316623
473 1 0.751704 0.250088 0.379307
474 1 0.815997 0.309575 0.377195
485 1 0.126519 0.370417 0.37338
359 1 0.185836 0.372969 0.311915
340 1 0.494837 0.321949 0.316432
371 1 0.561899 0.373058 0.310516
344 1 0.626066 0.31073 0.311745
379 1 0.812193 0.37098 0.312981
478 1 0.938215 0.309221 0.374108
355 1 0.0643709 0.370982 0.311475
489 1 0.250551 0.372973 0.372002
490 1 0.311537 0.436412 0.381009
368 1 0.370263 0.437576 0.316602
501 1 0.619609 0.379859 0.373351
502 1 0.687596 0.433959 0.372977
383 1 0.939873 0.372878 0.315663
356 1 0.00329475 0.432714 0.317491
482 1 0.0672073 0.434274 0.374716
439 1 0.682127 0.12297 0.44044
494 1 0.43405 0.434846 0.37628
380 1 0.751914 0.432378 0.314063
479 1 0.933932 0.248255 0.4346
265 1 0.246588 0.00213137 0.248685
384 1 0.871268 0.430455 0.31127
472 1 0.62235 0.316051 0.436294
392 1 0.120751 0.0629291 0.436323
269 1 0.374305 0.0010074 0.251841
400 1 0.374915 0.0644878 0.437309
402 1 0.566842 0.0600185 0.375048
459 1 0.310053 0.251742 0.434765
416 1 0.875881 0.0639645 0.439449
419 1 0.0607285 0.122482 0.437005
388 1 0.997914 0.0629475 0.439884
421 1 0.121141 0.120421 0.374349
390 1 0.184157 0.0626766 0.371306
396 1 0.246831 0.0631562 0.432126
431 1 0.438336 0.121436 0.435732
410 1 0.811851 0.0616839 0.378392
447 1 0.934349 0.121537 0.440245
428 1 0.246455 0.188165 0.433845
427 1 0.312886 0.127112 0.435289
433 1 0.501186 0.121817 0.37693
435 1 0.564436 0.121545 0.43481
440 1 0.626242 0.188715 0.436631
441 1 0.752298 0.129051 0.379044
444 1 0.750431 0.188012 0.437078
443 1 0.816905 0.126213 0.43835
418 1 0.0629603 0.186311 0.373491
424 1 0.120549 0.186214 0.436855
422 1 0.18644 0.189091 0.376049
432 1 0.379028 0.191957 0.43245
438 1 0.689798 0.186629 0.376602
449 1 0.998102 0.248594 0.371637
451 1 0.0561416 0.243146 0.436617
460 1 0.249987 0.313926 0.433601
462 1 0.437254 0.310533 0.372849
463 1 0.4397 0.250828 0.436909
467 1 0.562551 0.251787 0.434394
475 1 0.813756 0.2504 0.436809
477 1 0.873953 0.25088 0.375393
450 1 0.0576815 0.311272 0.372047
454 1 0.189382 0.311298 0.371307
458 1 0.311147 0.314089 0.37388
468 1 0.498729 0.311378 0.43615
466 1 0.561505 0.310238 0.373953
470 1 0.68837 0.311377 0.378822
476 1 0.750259 0.315349 0.44155
452 1 0.998452 0.30571 0.435899
483 1 0.0645726 0.372625 0.436749
486 1 0.191101 0.432551 0.372302
496 1 0.375095 0.433168 0.440518
493 1 0.369111 0.374089 0.376886
497 1 0.501648 0.379126 0.377939
499 1 0.562015 0.374967 0.436948
503 1 0.688266 0.375623 0.441234
505 1 0.755275 0.369237 0.376292
506 1 0.814919 0.433957 0.376579
509 1 0.874647 0.371547 0.377674
484 1 0.00330664 0.435632 0.437594
481 1 0.99843 0.372698 0.379106
455 1 0.190932 0.25148 0.435898
500 1 0.503465 0.439386 0.436914
412 1 0.749513 0.0646141 0.438656
498 1 0.560036 0.442144 0.372189
504 1 0.622943 0.434592 0.43983
456 1 0.120635 0.309767 0.436963
510 1 0.936412 0.434454 0.375889
448 1 0.877477 0.185685 0.436921
471 1 0.689765 0.249177 0.44362
423 1 0.180865 0.125721 0.437029
1431 1 0.688767 0.492361 0.438997
420 1 0.998874 0.186078 0.442231
404 1 0.504218 0.062111 0.435397
436 1 0.500133 0.187865 0.435701
408 1 0.62678 0.0592412 0.435187
287 1 0.940899 -0.000290134 0.315461
109 1 0.377381 0.374655 0.00144781
1439 1 0.937559 0.496838 0.438678
1537 1 0.999582 0.49964 0.49907
98 1 0.064385 0.437546 0.000509709
279 1 0.68866 1.10956e-05 0.312468
387 1 0.0621009 0.000679655 0.438695
1303 1 0.691728 0.500204 0.30967
149 1 0.626263 -0.000966956 0.127673
522 1 0.312684 0.0648855 0.49806
86 1 0.68466 0.318253 0.00460771
1561 1 0.750691 0.498353 0.499551
614 1 0.18988 0.436784 0.500716
553 1 0.250039 0.124014 0.497912
518 1 0.187301 0.0620077 0.497367
562 1 0.56064 0.192142 0.498912
23 1 0.691144 0.00137592 0.0602053
261 1 0.126799 0.00237904 0.247563
275 1 0.567403 -0.00143372 0.311582
11 1 0.314385 0.00350252 0.059831
1039 1 0.437778 0.497894 0.0594508
1055 1 0.937243 0.498802 0.0580298
521 1 0.250916 0.00276319 0.498943
1427 1 0.563319 0.498555 0.439363
570 1 0.812573 0.191499 0.497983
546 1 0.0619856 0.184691 0.498869
1025 1 -0.00123549 0.49955 0.00278322
629 1 0.628102 0.374559 0.499435
625 1 0.500563 0.375714 0.49902
610 1 0.0658175 0.432373 0.499168
578 1 0.0600601 0.311186 0.498481
606 1 0.936384 0.311784 0.498457
54 1 0.687485 0.188841 0.00110349
78 1 0.437935 0.311591 0.000696019
81 1 0.501173 0.248899 0.00166065
526 1 0.437738 0.0594985 0.496993
118 1 0.685958 0.441698 0.00351316
582 1 0.182928 0.312935 0.495058
97 1 0.997817 0.374173 0.000692765
93 1 0.875912 0.249148 0.00489769
530 1 0.562978 0.0602016 0.498961
602 1 0.813036 0.309026 0.500515
9 1 0.248065 -0.00107499 0.00285967
594 1 0.55856 0.30795 0.498233
609 1 0.00456791 0.375832 0.500789
597 1 0.626317 0.250607 0.496949
1541 1 0.12677 0.497506 0.496811
613 1 0.12744 0.374351 0.49995
589 1 0.374609 0.247455 0.497191
618 1 0.310673 0.438494 0.498524
70 1 0.185282 0.313855 0.00171495
21 1 0.624238 0.000915243 0.0032543
534 1 0.689229 0.0604278 0.499071
549 1 0.123978 0.121362 0.498982
45 1 0.372262 0.1252 0.00211378
605 1 0.87716 0.249719 0.500113
117 1 0.625184 0.376953 0.00275441
1923 1 0.0600115 0.501768 0.937872
919 1 0.688623 0.00119472 0.93846
1012 1 0.502119 0.440623 0.935444
661 1 0.626391 -3.33559e-05 0.626994
1565 1 0.876762 0.501259 0.503973
1547 1 0.311297 0.497931 0.563009
1683 1 0.563869 0.494865 0.69004
528 1 0.374866 0.0637479 0.560734
545 1 0.998086 0.126591 0.502413
563 1 0.562385 0.125684 0.559769
536 1 0.624578 0.0640866 0.564655
544 1 0.873682 0.0638763 0.561062
575 1 0.940323 0.127098 0.563768
527 1 0.437142 0.00105083 0.559957
560 1 0.3785 0.187437 0.555919
574 1 0.937779 0.187814 0.501192
647 1 0.191901 0.000384628 0.688405
598 1 0.687357 0.312945 0.503418
567 1 0.689726 0.122388 0.564833
1811 1 0.565129 0.498039 0.810692
571 1 0.811811 0.124497 0.563122
634 1 0.811247 0.436445 0.506113
785 1 0.501837 -0.00168375 0.75114
548 1 1.00029 0.188446 0.563371
552 1 0.124644 0.185025 0.558324
775 1 0.18533 0.00268648 0.807939
34 1 0.0641725 0.187716 1.0017
564 1 0.499539 0.190224 0.55991
576 1 0.874254 0.189909 0.562077
781 1 0.371595 0.0014993 0.750261
584 1 0.123133 0.315314 0.566534
49 1 0.498255 0.127817 0.996113
587 1 0.311146 0.252972 0.55789
592 1 0.370852 0.311945 0.564027
596 1 0.502354 0.312795 0.561426
595 1 0.565067 0.251898 0.559736
519 1 0.187625 0.00440696 0.559933
1931 1 0.311835 0.498183 0.936854
535 1 0.689073 0.00202764 0.563783
608 1 0.873418 0.31516 0.567073
1673 1 0.252247 0.499632 0.62637
22 1 0.688312 0.0615238 0.997699
619 1 0.312914 0.377252 0.562385
600 1 0.626505 0.31135 0.565974
617 1 0.249854 0.374381 0.50245
569 1 0.751157 0.125688 0.50075
580 1 0.998011 0.310954 0.558992
1941 1 0.62648 0.499395 0.875356
616 1 0.125929 0.440697 0.563938
110 1 0.440922 0.438618 0.996992
620 1 0.247742 0.439834 0.564761
901 1 0.119464 0.00324382 0.873898
623 1 0.436253 0.367916 0.565004
627 1 0.564649 0.373205 0.563705
631 1 0.687527 0.375066 0.566689
1008 1 0.376474 0.439393 0.935663
1000 1 0.123932 0.44151 0.9423
513 1 0.993998 0.000389111 0.498926
1555 1 0.563736 0.494461 0.564107
628 1 0.499603 0.432768 0.561569
632 1 0.625294 0.433629 0.564634
897 1 0.998968 0.00277426 0.871024
640 1 0.873631 0.438809 0.563778
773 1 0.126141 0.00223623 0.749622
1679 1 0.441931 0.499203 0.689691
520 1 0.123043 0.0616811 0.56137
1020 1 0.748974 0.435906 0.938592
1007 1 0.433645 0.3767 0.939174
662 1 0.689489 0.062979 0.623923
1004 1 0.24795 0.44013 0.936516
516 1 0.00306913 0.0646627 0.566321
673 1 0.00326659 0.124342 0.624831
551 1 0.186311 0.124084 0.560055
524 1 0.251588 0.064932 0.559835
532 1 0.505269 0.0552484 0.562505
540 1 0.749682 0.0617023 0.563884
547 1 0.0583397 0.126745 0.559667
678 1 0.18341 0.191739 0.623317
555 1 0.313666 0.124762 0.555862
559 1 0.439603 0.116814 0.562477
689 1 0.501013 0.119363 0.625777
690 1 0.558669 0.184463 0.62393
572 1 0.751459 0.188068 0.561261
702 1 0.93409 0.191794 0.624109
674 1 0.0570898 0.193405 0.626156
583 1 0.185445 0.247918 0.561562
556 1 0.246737 0.19064 0.556965
713 1 0.24346 0.250821 0.621231
591 1 0.434004 0.248081 0.560391
686 1 0.439035 0.188431 0.624999
721 1 0.499675 0.246825 0.622305
568 1 0.626719 0.187558 0.567072
599 1 0.688796 0.252814 0.567146
603 1 0.812324 0.252844 0.563139
607 1 0.936055 0.25089 0.563317
579 1 0.0615748 0.253201 0.559312
714 1 0.311157 0.312644 0.6225
611 1 0.0625255 0.377808 0.566833
615 1 0.187885 0.372559 0.56441
588 1 0.242986 0.313783 0.559038
749 1 0.377326 0.368346 0.62699
722 1 0.563453 0.308777 0.622711
757 1 0.623502 0.375789 0.626115
604 1 0.75002 0.310551 0.569941
635 1 0.814614 0.377891 0.568283
734 1 0.938793 0.314884 0.629798
741 1 0.128065 0.375203 0.62659
742 1 0.187668 0.438733 0.624029
745 1 0.246773 0.371964 0.626003
746 1 0.314236 0.435655 0.621467
624 1 0.375524 0.44125 0.564493
754 1 0.561764 0.436262 0.625601
758 1 0.686452 0.439013 0.630179
762 1 0.811714 0.440605 0.628888
765 1 0.877392 0.378706 0.625965
639 1 0.940768 0.374437 0.562695
999 1 0.187244 0.373251 0.93713
1799 1 0.190694 0.497694 0.815335
573 1 0.877808 0.12745 0.500736
14 1 0.437412 0.0636781 0.99518
992 1 0.874679 0.311911 0.940283
636 1 0.750762 0.436178 0.569022
984 1 0.629297 0.31397 0.937552
612 1 0.999638 0.436271 0.564789
642 1 0.0654895 0.0622467 0.628899
980 1 0.498437 0.311406 0.938383
646 1 0.187979 0.0643125 0.625717
921 1 0.749052 0.00199765 0.877981
514 1 0.0597018 0.0628727 0.502676
668 1 0.751193 0.0614727 0.69483
13 1 0.375465 -0.000566034 0.99962
670 1 0.932982 0.0600572 0.627643
675 1 0.0632632 0.123677 0.690393
677 1 0.117578 0.133547 0.622897
652 1 0.246682 0.0602613 0.684732
650 1 0.311352 0.0640613 0.618427
656 1 0.374456 0.0673924 0.688906
654 1 0.43609 0.0619844 0.626076
660 1 0.498565 0.0596265 0.685676
658 1 0.562513 0.0565252 0.628665
697 1 0.751467 0.124907 0.623717
666 1 0.809994 0.0611309 0.627742
701 1 0.873974 0.124889 0.627398
676 1 0.998383 0.191127 0.687737
681 1 0.250123 0.126841 0.618318
685 1 0.37607 0.128266 0.62343
687 1 0.435737 0.123981 0.687561
693 1 0.621114 0.128401 0.625207
694 1 0.692454 0.187525 0.628919
698 1 0.813995 0.184291 0.626208
704 1 0.875573 0.186345 0.688292
709 1 0.121059 0.25271 0.624238
711 1 0.18775 0.24803 0.686189
682 1 0.315216 0.190264 0.620541
719 1 0.438098 0.246592 0.690262
692 1 0.49915 0.185807 0.685756
723 1 0.560028 0.249146 0.687302
729 1 0.755966 0.247723 0.6258
706 1 0.0620466 0.314421 0.626245
712 1 0.124507 0.312321 0.689067
715 1 0.312293 0.250103 0.686633
717 1 0.372079 0.253087 0.626238
720 1 0.378378 0.312061 0.691252
724 1 0.499971 0.307057 0.683325
725 1 0.62487 0.247263 0.627543
726 1 0.685711 0.312613 0.627344
732 1 0.749433 0.309384 0.687603
730 1 0.813852 0.311241 0.627997
733 1 0.874162 0.250834 0.625594
705 1 0.998387 0.255624 0.619394
710 1 0.184294 0.309335 0.62481
716 1 0.246714 0.306385 0.685131
718 1 0.434143 0.307034 0.624603
761 1 0.748614 0.375162 0.627554
736 1 0.876245 0.313147 0.691833
739 1 0.0634519 0.37549 0.685767
744 1 0.1229 0.445254 0.686299
748 1 0.247712 0.43694 0.68696
747 1 0.308405 0.372963 0.683503
752 1 0.375645 0.436248 0.691415
750 1 0.437357 0.433646 0.621355
753 1 0.505815 0.374496 0.625774
755 1 0.564043 0.374616 0.68666
767 1 0.935364 0.380337 0.691377
737 1 0.999714 0.378178 0.627254
738 1 0.063253 0.440408 0.625762
927 1 0.936502 -0.00203411 0.933609
1687 1 0.686729 0.497551 0.69124
760 1 0.623495 0.435883 0.684475
968 1 0.127609 0.309647 0.939355
771 1 0.0606091 0.00196651 0.807744
964 1 0.997677 0.3142 0.933347
766 1 0.937127 0.43745 0.626814
644 1 0.00104911 0.0642496 0.686253
648 1 0.124885 0.0638037 0.686778
774 1 0.188382 0.0675349 0.743592
1925 1 0.125987 0.49854 0.875723
1549 1 0.377231 0.499054 0.499359
664 1 0.62573 0.0633033 0.687925
790 1 0.684041 0.062322 0.746209
899 1 0.0602425 0.00309692 0.939345
987 1 0.81581 0.25154 0.937583
542 1 0.934434 0.0623257 0.50221
801 1 0.000964183 0.128392 0.747147
778 1 0.312957 0.0653044 0.748515
782 1 0.439781 0.0609795 0.747861
786 1 0.56235 0.0612781 0.752475
691 1 0.56381 0.123069 0.686395
821 1 0.621721 0.124382 0.751541
695 1 0.68769 0.125207 0.69215
794 1 0.81052 0.0580324 0.756189
672 1 0.87329 0.0609677 0.693546
802 1 0.0631664 0.193389 0.747753
680 1 0.122753 0.192002 0.686473
679 1 0.18545 0.1265 0.681241
809 1 0.250424 0.125472 0.74514
683 1 0.309076 0.12503 0.677324
817 1 0.49481 0.126154 0.748219
818 1 0.56176 0.183578 0.744823
700 1 0.750745 0.185343 0.689999
699 1 0.811672 0.126513 0.686733
703 1 0.937484 0.127334 0.688825
684 1 0.253782 0.189461 0.685635
688 1 0.375663 0.189798 0.686432
814 1 0.433768 0.186241 0.749861
696 1 0.629456 0.188225 0.687032
708 1 0.99747 0.316851 0.688464
707 1 0.0599669 0.25404 0.688511
834 1 0.0628685 0.312831 0.754252
838 1 0.19084 0.314522 0.752607
845 1 0.373014 0.249755 0.748217
727 1 0.692589 0.250774 0.688047
731 1 0.813985 0.248029 0.688549
735 1 0.936801 0.252052 0.691794
842 1 0.311496 0.311547 0.746091
846 1 0.44041 0.309781 0.75131
881 1 0.504328 0.372781 0.749633
728 1 0.625069 0.30714 0.687573
854 1 0.68935 0.311274 0.749459
763 1 0.811072 0.375606 0.691041
862 1 0.940294 0.315218 0.751514
743 1 0.183392 0.3762 0.689648
873 1 0.250348 0.377264 0.753133
751 1 0.441316 0.36838 0.689248
756 1 0.495829 0.434535 0.686591
885 1 0.62459 0.374644 0.751863
759 1 0.684738 0.373209 0.692125
889 1 0.75051 0.377066 0.752301
768 1 0.87438 0.440345 0.690213
740 1 0.00363971 0.440435 0.687297
626 1 0.5632 0.434601 0.502762
983 1 0.687886 0.249021 0.938449
909 1 0.373494 -0.000654356 0.87378
601 1 0.74806 0.248398 0.50204
791 1 0.685282 0.00461052 0.813748
979 1 0.562823 0.248259 0.937217
886 1 0.68704 0.437317 0.752861
764 1 0.752535 0.436649 0.687344
894 1 0.936652 0.439126 0.752648
643 1 0.0622901 -0.00024886 0.68769
772 1 0.00295208 0.0596138 0.808242
6 1 0.182385 0.0626206 0.99887
776 1 0.124232 0.0631263 0.812505
1685 1 0.622201 0.498437 0.626643
566 1 0.683547 0.185272 0.502361
593 1 0.4991 0.250176 0.500249
792 1 0.621803 0.0614096 0.81122
50 1 0.563525 0.186618 0.999164
798 1 0.940556 0.0634776 0.750075
770 1 0.062248 0.0602184 0.749019
788 1 0.496253 0.0602546 0.808862
825 1 0.749707 0.124028 0.752363
829 1 0.874953 0.123045 0.750996
805 1 0.127955 0.129982 0.745673
806 1 0.190901 0.185702 0.74356
812 1 0.252254 0.187199 0.810117
813 1 0.377011 0.121549 0.75686
819 1 0.558274 0.124575 0.808409
822 1 0.687555 0.18535 0.751647
827 1 0.814612 0.124156 0.815308
837 1 0.125239 0.254911 0.746773
810 1 0.313683 0.18319 0.748943
857 1 0.748651 0.244565 0.75367
826 1 0.814961 0.186329 0.751052
830 1 0.932399 0.1882 0.750273
839 1 0.192824 0.250927 0.80923
841 1 0.252308 0.251904 0.747872
847 1 0.435326 0.247834 0.810432
849 1 0.501922 0.247398 0.751053
850 1 0.562278 0.308946 0.750613
853 1 0.62613 0.247541 0.748136
861 1 0.873327 0.251897 0.752777
833 1 0.997588 0.252833 0.752882
836 1 0.00202993 0.312298 0.814505
844 1 0.249355 0.314877 0.816045
875 1 0.313678 0.374772 0.811831
877 1 0.375008 0.371912 0.750247
887 1 0.689046 0.372099 0.813792
860 1 0.75047 0.310367 0.809047
858 1 0.808468 0.313755 0.750713
891 1 0.811208 0.374812 0.815476
893 1 0.874216 0.373416 0.750178
895 1 0.939924 0.37546 0.813625
865 1 0.000827122 0.378164 0.750089
866 1 0.0654631 0.4329 0.746705
869 1 0.12514 0.370917 0.753248
874 1 0.317102 0.435586 0.748508
878 1 0.4403 0.435361 0.750978
879 1 0.438898 0.376321 0.808329
892 1 0.750887 0.433263 0.811288
890 1 0.812268 0.436291 0.754711
868 1 0.00438395 0.442742 0.81342
870 1 0.187184 0.437662 0.747765
963 1 0.063668 0.251665 0.93982
991 1 0.937322 0.252238 0.940769
884 1 0.504403 0.436922 0.814958
882 1 0.565525 0.433741 0.752097
888 1 0.624998 0.43476 0.814827
1551 1 0.43874 0.498303 0.560685
956 1 0.752567 0.190041 0.937321
651 1 0.313725 0.00485547 0.681242
939 1 0.308805 0.124639 0.936513
952 1 0.629648 0.187881 0.937211
622 1 0.441231 0.438414 0.499118
959 1 0.940369 0.124955 0.934424
935 1 0.185967 0.124951 0.93834
633 1 0.749929 0.373881 0.507486
926 1 0.937815 0.0652381 0.872851
780 1 0.249433 0.0627958 0.817344
811 1 0.312867 0.122262 0.811374
906 1 0.312051 0.0640456 0.872049
784 1 0.373877 0.0588024 0.812772
815 1 0.437696 0.122901 0.813977
914 1 0.556819 0.0649181 0.869715
949 1 0.619931 0.124722 0.873221
823 1 0.684444 0.126717 0.813
796 1 0.748758 0.0674516 0.817023
953 1 0.753134 0.125576 0.876775
800 1 0.872951 0.0597156 0.814111
957 1 0.878776 0.129538 0.874045
803 1 0.065277 0.125691 0.806333
933 1 0.12455 0.122233 0.873921
807 1 0.185459 0.127874 0.812135
934 1 0.186652 0.190634 0.869438
816 1 0.37442 0.187766 0.814026
824 1 0.627567 0.18712 0.812529
828 1 0.749063 0.185763 0.813141
832 1 0.874895 0.187202 0.813428
831 1 0.941176 0.126584 0.81171
804 1 0.00245976 0.188836 0.811824
808 1 0.127457 0.196538 0.80972
938 1 0.306839 0.189097 0.874049
973 1 0.374317 0.249079 0.874745
820 1 0.500593 0.189636 0.814521
851 1 0.566546 0.249239 0.817603
981 1 0.626307 0.24848 0.876621
855 1 0.689645 0.251588 0.810873
954 1 0.814055 0.187444 0.873415
859 1 0.811752 0.249046 0.808497
863 1 0.934484 0.248068 0.813047
835 1 0.0616657 0.2468 0.814458
840 1 0.123255 0.310318 0.815904
969 1 0.249866 0.251887 0.873246
843 1 0.312935 0.251131 0.811786
852 1 0.498713 0.31328 0.811653
864 1 0.868843 0.311678 0.814534
867 1 0.0600569 0.375994 0.814073
962 1 0.0585514 0.310726 0.872053
966 1 0.18834 0.310865 0.873908
848 1 0.376364 0.315123 0.81486
978 1 0.564159 0.307865 0.878127
856 1 0.629505 0.31023 0.81047
1017 1 0.749993 0.375204 0.882766
986 1 0.808506 0.31332 0.876513
1021 1 0.877614 0.373857 0.877044
993 1 0.999086 0.38075 0.86983
997 1 0.122343 0.3761 0.87232
871 1 0.188508 0.373777 0.814204
1002 1 0.310889 0.438204 0.875277
880 1 0.376114 0.437769 0.812671
883 1 0.565922 0.371811 0.81703
1018 1 0.813869 0.442049 0.873087
896 1 0.875816 0.433906 0.812048
1022 1 0.938019 0.43942 0.875317
948 1 0.499948 0.190095 0.933328
872 1 0.126588 0.43886 0.811639
904 1 0.124854 0.0649176 0.937638
876 1 0.250015 0.437318 0.811418