ITEM: TIMESTEP
100000
ITEM: NUMBER OF ATOMS
2048
ITEM: BOX BOUNDS pp pp pp
0.0000000000000000e+00 1.1351867295763070e+01
0.0000000000000000e+00 1.1351867295763070e+01
0.0000000000000000e+00 1.1351867295763070e+01
ITEM: ATOMS id type xs ys zs
1 1 0.00145171 0.00521994 -5.25619e-05
602 1 0.812363 0.316383 0.495958
633 1 0.750201 0.375632 0.495094
109 1 0.373725 0.375115 0.00519374
20 1 0.494377 0.0592476 0.0576184
1437 1 0.872902 0.498464 0.369985
508 1 0.747059 0.439733 0.432694
32 1 0.87206 0.0637721 0.0627038
35 1 0.0628372 0.130436 0.0609292
1311 1 0.934375 0.497822 0.312008
8 1 0.121739 0.066303 0.0632729
39 1 0.187292 0.123176 0.0587282
43 1 0.310725 0.12604 0.0635194
38 1 0.186062 0.188608 0.0048034
47 1 0.430709 0.121827 0.060921
51 1 0.554192 0.121048 0.0650125
58 1 0.810824 0.186333 0.000409929
143 1 0.43493 -0.00030734 0.185177
44 1 0.250965 0.190072 0.0625719
48 1 0.371964 0.183626 0.0611286
52 1 0.494337 0.188531 0.0642256
56 1 0.617338 0.189397 0.0644845
1435 1 0.811044 0.498728 0.433847
554 1 0.309382 0.185098 0.497149
59 1 0.814837 0.125444 0.0687422
638 1 0.937013 0.434757 0.495053
40 1 0.126551 0.185485 0.0666597
597 1 0.630719 0.254134 0.496175
1305 1 0.750965 0.499787 0.248827
83 1 0.560173 0.254653 0.0638927
106 1 0.316497 0.443392 0.00101751
91 1 0.812527 0.251772 0.0581894
64 1 0.877555 0.186066 0.056947
1415 1 0.186525 0.498567 0.439569
75 1 0.314706 0.250229 0.0608088
79 1 0.431067 0.246387 0.0653068
95 1 0.932704 0.254068 0.0631793
31 1 0.937386 0.00016588 0.0610601
76 1 0.252978 0.315008 0.0618931
80 1 0.367609 0.315577 0.0654738
111 1 0.443736 0.370536 0.064229
1179 1 0.814497 0.49882 0.183794
1299 1 0.561353 0.497898 0.315348
92 1 0.741951 0.309909 0.05999
123 1 0.81003 0.381462 0.0562413
1027 1 0.0631928 0.496977 0.0567801
127 1 0.934415 0.376897 0.059975
1041 1 0.500331 0.499356 0.0109298
108 1 0.249686 0.43363 0.062435
522 1 0.306628 0.0646662 0.4962
107 1 0.310863 0.380233 0.0620899
601 1 0.752626 0.252562 0.494085
413 1 0.873196 0.00241157 0.376156
573 1 0.876177 0.126005 0.499144
277 1 0.626338 0.00260023 0.248376
606 1 0.938071 0.311191 0.49946
594 1 0.570423 0.312048 0.496689
1413 1 0.121729 0.498795 0.375601
118 1 0.690671 0.444304 0.00192995
112 1 0.373494 0.437503 0.0677768
125 1 0.875769 0.375816 -0.000889056
275 1 0.562712 0.00263321 0.315324
30 1 0.940716 0.0620856 0.00206586
124 1 0.749252 0.438 0.0616988
131 1 0.0659917 0.00238968 0.191587
94 1 0.93929 0.315649 0.00249089
1157 1 0.122667 0.499923 0.123706
100 1 0.995144 0.435074 0.0565967
130 1 0.0643035 0.0630202 0.126808
578 1 0.0596512 0.307668 0.493335
16 1 0.369611 0.0566754 0.0685828
537 1 0.744831 0.0039411 0.495868
561 1 0.494183 0.126794 0.499469
28 1 0.753251 0.0597105 0.0688944
4 1 0.00671949 0.0692039 0.0576902
488 1 0.122521 0.434024 0.442168
165 1 0.124004 0.12224 0.128913
134 1 0.182808 0.0573044 0.12594
12 1 0.250196 0.0591334 0.0672222
138 1 0.312846 0.0594235 0.129628
173 1 0.373582 0.126778 0.119993
177 1 0.502298 0.127267 0.132015
24 1 0.622801 0.0616362 0.0632916
63 1 0.932529 0.124728 0.0631873
158 1 0.937278 0.0671131 0.127933
161 1 0.997026 0.127442 0.120812
162 1 0.0660872 0.188275 0.126989
166 1 0.186273 0.182195 0.127894
169 1 0.25023 0.124991 0.126965
55 1 0.686155 0.12348 0.0603998
189 1 0.874816 0.126816 0.122973
190 1 0.934165 0.18807 0.122518
36 1 0.994931 0.18708 0.0574192
67 1 0.0638522 0.248119 0.067508
197 1 0.121294 0.248692 0.128911
170 1 0.310611 0.192572 0.124599
174 1 0.434534 0.18779 0.128425
209 1 0.494989 0.251772 0.132647
87 1 0.693008 0.24753 0.0594039
60 1 0.752083 0.19093 0.0601582
193 1 0.995655 0.251307 0.117155
71 1 0.181373 0.250565 0.0683597
201 1 0.253175 0.255013 0.125846
205 1 0.371564 0.254017 0.131945
206 1 0.436615 0.313658 0.129521
210 1 0.563261 0.314301 0.120364
213 1 0.625073 0.248393 0.127277
214 1 0.689059 0.313087 0.124566
218 1 0.813886 0.311368 0.121266
68 1 0.00102862 0.313178 0.0602978
194 1 0.0615672 0.309961 0.126668
72 1 0.125908 0.312307 0.0609012
202 1 0.310083 0.317454 0.125955
84 1 0.501066 0.316305 0.0654969
88 1 0.627724 0.310995 0.0633277
249 1 0.755492 0.368409 0.120504
96 1 0.868707 0.315106 0.0597485
99 1 0.0582686 0.37299 0.061067
229 1 0.119727 0.375322 0.129121
103 1 0.185667 0.37401 0.0565011
233 1 0.253035 0.376598 0.119605
238 1 0.432124 0.435106 0.125435
115 1 0.564945 0.370409 0.0529259
119 1 0.685142 0.371509 0.0587491
254 1 0.933213 0.437039 0.122167
104 1 0.122219 0.434418 0.0639338
7 1 0.188619 0.0041938 0.0589636
589 1 0.373348 0.243166 0.49897
116 1 0.500372 0.435867 0.0646618
242 1 0.558498 0.435997 0.129745
120 1 0.622805 0.437726 0.0735458
246 1 0.688167 0.437224 0.123472
250 1 0.818827 0.438023 0.121466
128 1 0.873104 0.4457 0.0605958
1429 1 0.618417 0.496788 0.373361
1287 1 0.178052 0.496106 0.31077
387 1 0.0632086 0.00243566 0.443596
148 1 0.502614 0.0637947 0.185253
152 1 0.625151 0.0683644 0.191387
574 1 0.939566 0.188649 0.493783
154 1 0.814366 0.0647137 0.125313
163 1 0.0574902 0.132076 0.191666
140 1 0.244145 0.059661 0.190853
142 1 0.436636 0.0658154 0.12855
146 1 0.565163 0.0655663 0.12429
179 1 0.563409 0.125767 0.187144
181 1 0.623217 0.124844 0.121151
150 1 0.684329 0.0633161 0.123774
185 1 0.745958 0.121657 0.127706
191 1 0.935355 0.129406 0.183958
132 1 0.997253 0.0662356 0.188498
168 1 0.12664 0.187933 0.186934
167 1 0.187096 0.123433 0.184978
171 1 0.312399 0.127994 0.18918
175 1 0.434957 0.127583 0.186231
180 1 0.501708 0.191007 0.192427
178 1 0.560211 0.191386 0.120573
186 1 0.81336 0.192434 0.117798
192 1 0.870371 0.189643 0.187328
164 1 0.996745 0.194278 0.180193
195 1 0.0624042 0.250706 0.193351
172 1 0.251319 0.190048 0.186604
176 1 0.378044 0.187178 0.188213
207 1 0.432547 0.259307 0.189482
182 1 0.692845 0.187289 0.123833
199 1 0.186317 0.249574 0.179582
204 1 0.246346 0.314022 0.186878
203 1 0.312167 0.24958 0.192987
208 1 0.371257 0.311514 0.193172
212 1 0.496758 0.314911 0.192573
211 1 0.563972 0.25176 0.182626
217 1 0.750557 0.252278 0.124085
221 1 0.875782 0.253629 0.120859
196 1 0.00159377 0.312796 0.183025
227 1 0.0569818 0.375811 0.187469
200 1 0.119452 0.317794 0.190828
198 1 0.184421 0.315532 0.122181
237 1 0.37168 0.375792 0.131292
239 1 0.438965 0.376814 0.187794
245 1 0.628186 0.372897 0.127801
222 1 0.938818 0.313936 0.122917
235 1 0.31179 0.376327 0.194679
241 1 0.503486 0.373 0.12663
248 1 0.622512 0.442581 0.185317
247 1 0.688144 0.376706 0.187143
253 1 0.877294 0.37678 0.12321
225 1 0.998228 0.381193 0.119007
226 1 0.0661602 0.43921 0.127863
230 1 0.183084 0.43911 0.128057
609 1 0.00258054 0.375268 0.498119
234 1 0.313304 0.43762 0.129074
468 1 0.502887 0.314159 0.443263
1431 1 0.681084 0.498095 0.438709
244 1 0.493829 0.440661 0.185474
512 1 0.873161 0.437812 0.435676
464 1 0.374526 0.312904 0.43589
252 1 0.752148 0.439523 0.183167
507 1 0.811996 0.375016 0.436012
228 1 0.99572 0.436022 0.184144
136 1 0.126472 0.061761 0.189578
504 1 0.622153 0.436987 0.430129
110 1 0.442188 0.4347 0.00547614
496 1 0.371022 0.438349 0.438434
274 1 0.559571 0.0627675 0.254507
160 1 0.873136 0.0613183 0.184795
262 1 0.183111 0.059272 0.249871
266 1 0.309588 0.0628352 0.245967
144 1 0.372233 0.0622934 0.186996
270 1 0.44352 0.0662621 0.241501
305 1 0.502356 0.132307 0.245893
309 1 0.624904 0.128105 0.246
183 1 0.689563 0.119779 0.189774
156 1 0.752136 0.0585258 0.185715
187 1 0.808998 0.125273 0.185367
290 1 0.0628429 0.190978 0.252943
293 1 0.125719 0.128555 0.252413
297 1 0.24554 0.121275 0.245936
301 1 0.37562 0.126111 0.24958
188 1 0.749333 0.183779 0.186058
314 1 0.80788 0.185743 0.247101
318 1 0.93961 0.191761 0.244942
294 1 0.190315 0.189283 0.248585
329 1 0.249039 0.253137 0.24768
298 1 0.30911 0.191175 0.251513
333 1 0.377746 0.252408 0.251508
302 1 0.437388 0.192769 0.251204
184 1 0.62714 0.184231 0.184781
341 1 0.622699 0.252752 0.244211
215 1 0.690593 0.247671 0.186141
219 1 0.811621 0.251707 0.186509
223 1 0.936199 0.254418 0.188883
322 1 0.05653 0.317109 0.247804
325 1 0.130246 0.251648 0.247337
326 1 0.187008 0.313945 0.246613
330 1 0.310609 0.312445 0.252299
216 1 0.624987 0.314762 0.185452
350 1 0.933924 0.3144 0.246969
357 1 0.124846 0.3782 0.248753
231 1 0.188011 0.375996 0.184085
361 1 0.245454 0.376183 0.249351
334 1 0.435463 0.311327 0.256325
220 1 0.75159 0.305748 0.193183
377 1 0.747938 0.371465 0.247635
346 1 0.814456 0.314019 0.251049
224 1 0.87034 0.316139 0.179515
369 1 0.501093 0.378337 0.246319
243 1 0.563848 0.373662 0.184523
251 1 0.809365 0.377225 0.18444
256 1 0.871556 0.439993 0.186935
255 1 0.935536 0.37891 0.185077
232 1 0.125673 0.436885 0.188578
236 1 0.248804 0.437283 0.189531
362 1 0.305652 0.442565 0.252655
492 1 0.249152 0.440749 0.436848
240 1 0.376346 0.43674 0.191754
1283 1 0.0605137 0.495907 0.315821
257 1 0.00605912 0.005017 0.249821
258 1 0.0657473 0.0689048 0.24853
19 1 0.560399 0.00158855 0.0669708
487 1 0.191902 0.374945 0.438819
276 1 0.49431 0.0664311 0.307907
278 1 0.689425 0.0612424 0.246394
284 1 0.74684 0.058292 0.313311
282 1 0.816827 0.0586762 0.253843
288 1 0.878997 0.0651418 0.313098
286 1 0.936577 0.0598786 0.249134
268 1 0.248942 0.0610814 0.310353
299 1 0.301742 0.127527 0.307844
307 1 0.567692 0.126627 0.312761
280 1 0.622569 0.0626836 0.313784
313 1 0.753572 0.122252 0.255415
317 1 0.874965 0.129049 0.243779
289 1 0.997611 0.130631 0.25077
292 1 0.993237 0.187477 0.311911
291 1 0.0600427 0.127548 0.312696
295 1 0.191392 0.125137 0.312843
308 1 0.501198 0.188755 0.311323
306 1 0.566894 0.187146 0.249379
312 1 0.622744 0.188219 0.312025
310 1 0.689552 0.179311 0.24978
316 1 0.747598 0.18818 0.309717
319 1 0.935899 0.125697 0.309417
296 1 0.126493 0.189598 0.311567
327 1 0.190371 0.251813 0.308667
300 1 0.244577 0.189907 0.312304
331 1 0.310943 0.250533 0.316968
343 1 0.685074 0.25072 0.310441
345 1 0.750253 0.243756 0.248463
347 1 0.81018 0.250316 0.317586
351 1 0.930179 0.252463 0.311351
332 1 0.246379 0.315618 0.310282
336 1 0.371922 0.31484 0.317535
335 1 0.443618 0.251668 0.315447
337 1 0.502122 0.254432 0.247247
340 1 0.503396 0.315962 0.307676
342 1 0.689498 0.310048 0.249602
349 1 0.873114 0.253632 0.24408
321 1 0.998789 0.256299 0.248619
324 1 0.001908 0.312001 0.309593
353 1 0.997188 0.37524 0.248756
338 1 0.562675 0.313529 0.246964
373 1 0.62103 0.379676 0.244909
352 1 0.871811 0.314323 0.314707
383 1 0.937092 0.372155 0.313707
354 1 0.0616947 0.437877 0.245262
358 1 0.184993 0.441387 0.247026
364 1 0.250147 0.444814 0.309784
363 1 0.310705 0.375732 0.31001
365 1 0.378534 0.373265 0.24969
368 1 0.375503 0.442575 0.311508
367 1 0.441535 0.37847 0.311645
376 1 0.623465 0.441148 0.310404
381 1 0.871779 0.368544 0.247864
356 1 0.999307 0.435794 0.311849
483 1 0.0604038 0.373514 0.435894
566 1 0.688279 0.188953 0.499605
1419 1 0.307927 0.49916 0.436679
366 1 0.437933 0.43566 0.252402
370 1 0.566404 0.440519 0.250663
374 1 0.687894 0.441061 0.248537
378 1 0.812889 0.437385 0.248063
384 1 0.877849 0.429975 0.307706
382 1 0.934154 0.436995 0.249321
390 1 0.184759 0.0651595 0.372278
598 1 0.689532 0.311823 0.494585
410 1 0.815429 0.0626437 0.373686
260 1 0.995213 0.0657046 0.314839
386 1 0.0551694 0.0618732 0.374434
264 1 0.121502 0.0594215 0.310799
272 1 0.383175 0.0626685 0.303094
429 1 0.373036 0.120344 0.363036
398 1 0.438904 0.0661559 0.370834
402 1 0.561198 0.0608322 0.372992
437 1 0.627173 0.123614 0.376608
311 1 0.686339 0.120053 0.310419
417 1 0.00190593 0.126266 0.375991
421 1 0.127201 0.125756 0.369337
425 1 0.251202 0.122312 0.377399
304 1 0.376623 0.196411 0.319806
303 1 0.437042 0.133599 0.310078
430 1 0.446223 0.193908 0.374246
433 1 0.502906 0.126008 0.369301
315 1 0.821782 0.123587 0.308551
320 1 0.877567 0.186926 0.313562
422 1 0.188639 0.185861 0.378981
457 1 0.251435 0.242677 0.378708
339 1 0.565966 0.253756 0.312487
434 1 0.560609 0.190501 0.373968
469 1 0.626361 0.248613 0.376575
473 1 0.751272 0.245932 0.373559
446 1 0.93848 0.184887 0.374557
323 1 0.063069 0.255756 0.308035
454 1 0.190119 0.315891 0.371955
461 1 0.372174 0.256285 0.376209
465 1 0.50596 0.257106 0.373691
344 1 0.625985 0.317282 0.307719
470 1 0.687025 0.313454 0.371956
348 1 0.751702 0.31051 0.305781
474 1 0.815716 0.310185 0.37644
477 1 0.868888 0.243507 0.373408
478 1 0.938139 0.311184 0.373291
355 1 0.0625446 0.372474 0.310915
450 1 0.0611925 0.312284 0.374727
328 1 0.128468 0.31582 0.309682
359 1 0.18583 0.380077 0.308151
458 1 0.314825 0.320097 0.379761
493 1 0.376912 0.377856 0.373121
462 1 0.439988 0.317953 0.374687
466 1 0.567946 0.311806 0.371136
375 1 0.691281 0.37839 0.308883
509 1 0.879787 0.374165 0.37524
481 1 0.00476481 0.371821 0.371865
360 1 0.121192 0.435964 0.313133
490 1 0.311281 0.436357 0.373375
497 1 0.502076 0.374076 0.378889
371 1 0.562905 0.376402 0.313115
501 1 0.628412 0.373752 0.369296
380 1 0.752836 0.437715 0.307373
505 1 0.749784 0.380793 0.377397
379 1 0.812297 0.379667 0.313672
510 1 0.939756 0.43932 0.374276
482 1 0.0659193 0.433522 0.378197
486 1 0.186782 0.441535 0.375641
372 1 0.503191 0.435375 0.31009
506 1 0.808884 0.440804 0.372607
503 1 0.685641 0.374695 0.436478
145 1 0.493558 0.00234519 0.125065
394 1 0.313456 0.06395 0.370471
629 1 0.628527 0.375468 0.499438
408 1 0.621904 0.059277 0.435402
406 1 0.685583 0.0652389 0.378825
414 1 0.936242 0.0549927 0.375747
419 1 0.0678551 0.123746 0.428343
392 1 0.125819 0.0622146 0.4385
400 1 0.373738 0.0615013 0.435868
431 1 0.438007 0.124653 0.436668
439 1 0.685658 0.126117 0.437614
445 1 0.878464 0.122823 0.375902
447 1 0.942184 0.121923 0.436138
388 1 0.998513 0.0594093 0.438072
420 1 -0.000177021 0.191198 0.430125
418 1 0.0597209 0.188387 0.37007
423 1 0.185059 0.124717 0.436387
440 1 0.625546 0.192409 0.435831
438 1 0.688285 0.190582 0.368125
441 1 0.75071 0.127912 0.372708
442 1 0.816285 0.178634 0.375242
426 1 0.309072 0.181194 0.375155
463 1 0.434646 0.252495 0.44336
467 1 0.565374 0.249322 0.437562
479 1 0.934456 0.24725 0.430124
449 1 0.995325 0.253914 0.368372
453 1 0.123725 0.252485 0.370611
455 1 0.18887 0.249117 0.437911
459 1 0.311673 0.246243 0.435524
472 1 0.630394 0.312811 0.435265
475 1 0.81226 0.252217 0.43327
456 1 0.126838 0.312857 0.432772
460 1 0.248917 0.313447 0.434837
491 1 0.308764 0.381555 0.441429
495 1 0.439307 0.372351 0.439218
476 1 0.749419 0.313276 0.432744
480 1 0.872359 0.312518 0.439999
511 1 0.937399 0.374495 0.43495
485 1 0.127034 0.378866 0.378061
489 1 0.250114 0.376332 0.36975
494 1 0.433932 0.442699 0.381007
500 1 0.497965 0.44454 0.440871
502 1 0.688811 0.439801 0.3658
533 1 0.619472 -0.000123151 0.499056
593 1 0.495716 0.250431 0.499483
498 1 0.562308 0.437362 0.373292
1309 1 0.877643 0.498763 0.247593
484 1 0.00341018 0.437099 0.440616
499 1 0.566406 0.375932 0.433864
1307 1 0.813146 0.496761 0.3059
147 1 0.560047 0.00457303 0.192414
396 1 0.248394 0.0575535 0.432639
102 1 0.190853 0.436846 0.000930946
279 1 0.687757 0.00183325 0.313341
404 1 0.503606 0.0691364 0.432069
407 1 0.686428 -0.000902301 0.435933
570 1 0.817143 0.193781 0.494781
105 1 0.25395 0.376978 0.00156326
412 1 0.752408 0.0660747 0.438796
416 1 0.877538 0.057056 0.441104
73 1 0.244025 0.252108 -0.000472916
451 1 0.0672097 0.248965 0.430614
581 1 0.128462 0.256504 0.497154
562 1 0.564563 0.191372 0.497122
427 1 0.313174 0.119867 0.432492
448 1 0.880886 0.18244 0.435556
435 1 0.565475 0.12785 0.438949
395 1 0.311939 0.00330051 0.436228
22 1 0.692096 0.0647149 0.00605695
443 1 0.814944 0.128387 0.444034
424 1 0.125754 0.187876 0.438149
444 1 0.75489 0.184265 0.436769
1291 1 0.31231 0.498824 0.313834
471 1 0.694433 0.243923 0.434586
66 1 0.0675563 0.310142 0.00113835
432 1 0.370501 0.183956 0.432971
436 1 0.503907 0.190161 0.438698
428 1 0.250119 0.181849 0.440536
452 1 0.998499 0.301523 0.436293
53 1 0.624127 0.119633 0.00120605
139 1 0.309229 -0.000692627 0.187371
50 1 0.562188 0.180588 0.00458667
1169 1 0.496097 0.500082 0.117047
409 1 0.750535 0.00145835 0.378214
81 1 0.497938 0.246826 0.00487786
1161 1 0.251868 0.497941 0.125067
49 1 0.499886 0.127726 0.000685691
525 1 0.369099 -0.000481546 0.498368
285 1 0.876887 0.00288037 0.246214
18 1 0.559622 0.0643258 0.00119762
15 1 0.433202 0.00146091 0.0660098
1297 1 0.497691 0.497701 0.252485
569 1 0.75294 0.123808 0.49973
634 1 0.809212 0.439514 0.493515
69 1 0.128189 0.24723 0.000541588
401 1 0.499636 0.000808439 0.375205
137 1 0.242553 0.00132021 0.129714
530 1 0.555731 0.0657652 0.499439
1293 1 0.373776 0.499989 0.247214
149 1 0.618986 0.0018884 0.13331
637 1 0.875315 0.374895 0.491207
1425 1 0.492393 0.496735 0.368414
1439 1 0.938175 0.498417 0.439308
23 1 0.690793 0.00190757 0.0611106
1153 1 0.997056 0.497098 0.1251
21 1 0.63004 0.00347303 0.003768
518 1 0.187702 0.0638399 0.494617
34 1 0.0598982 0.189598 0.00342454
29 1 0.874664 0.00167355 0.00186803
565 1 0.622572 0.127044 0.498968
546 1 0.0595716 0.182343 0.497527
41 1 0.246332 0.127518 0.00237088
126 1 0.932941 0.434325 0.00300735
70 1 0.187699 0.31555 0.00046862
618 1 0.312432 0.443968 0.498309
10 1 0.309075 0.0593064 0.00322063
585 1 0.24898 0.247051 0.495671
514 1 0.0640643 0.0684282 0.493187
621 1 0.376797 0.374936 0.495109
45 1 0.370857 0.122577 0.00439546
517 1 0.125837 0.00010823 0.496388
57 1 0.749639 0.126743 0.00109699
897 1 0.997114 0.0030126 0.872403
62 1 0.942038 0.185323 0.99583
907 1 0.311856 0.00606414 0.935189
1673 1 0.252231 0.497316 0.625469
771 1 0.0573277 0.00385272 0.819523
617 1 0.252475 0.372823 0.504681
77 1 0.376601 0.254302 0.99995
1689 1 0.749393 0.499641 0.626813
540 1 0.747981 0.0673501 0.563658
655 1 0.440295 0.00241824 0.691608
520 1 0.123693 0.0613677 0.561165
524 1 0.246437 0.0604298 0.563547
1665 1 0.00113473 0.50028 0.632368
559 1 0.433041 0.124714 0.562921
14 1 0.434166 0.0615629 1.00198
532 1 0.49845 0.0655924 0.561989
567 1 0.6876 0.128038 0.560922
544 1 0.873113 0.064324 0.554641
575 1 0.938784 0.124606 0.555038
1695 1 0.934455 0.496968 0.68973
552 1 0.120379 0.188358 0.564551
551 1 0.186898 0.127182 0.560527
1563 1 0.815396 0.499926 0.563357
925 1 0.8788 0.00124114 0.879723
560 1 0.376368 0.184074 0.563363
564 1 0.501409 0.191999 0.556078
78 1 0.432904 0.313005 0.999451
556 1 0.250301 0.187674 0.559153
33 1 0.99934 0.123705 0.994094
1925 1 0.122145 0.497387 0.874233
515 1 0.0639308 0.00230445 0.5649
568 1 0.629536 0.191561 0.561874
599 1 0.694201 0.253081 0.557806
90 1 0.815075 0.314425 0.998846
545 1 0.997817 0.120189 0.500239
579 1 0.0655736 0.249757 0.563134
583 1 0.189353 0.252469 0.56587
588 1 0.256566 0.308898 0.561409
1565 1 0.877873 0.495536 0.501996
595 1 0.568315 0.251573 0.555013
921 1 0.752049 0.0048375 0.870717
600 1 0.634719 0.3124 0.561274
580 1 0.0048262 0.307474 0.562053
527 1 0.441314 0.00590092 0.559455
74 1 0.306775 0.310914 0.998793
777 1 0.256272 0.000493242 0.744546
604 1 0.75702 0.317582 0.562759
608 1 0.875853 0.31909 0.563799
1805 1 0.373908 0.498287 0.74925
615 1 0.185461 0.375056 0.566969
663 1 0.682102 0.000748831 0.679493
624 1 0.381471 0.440967 0.562764
1927 1 0.184812 0.49824 0.944578
631 1 0.694434 0.375174 0.559604
542 1 0.937159 0.0618836 0.501649
635 1 0.815145 0.377769 0.551093
640 1 0.879453 0.433413 0.555795
612 1 0.00157694 0.43754 0.564341
1941 1 0.624356 0.497959 0.876565
625 1 0.501998 0.386253 0.501318
919 1 0.690378 0.00634713 0.939189
967 1 0.186978 0.24755 0.937599
628 1 0.499555 0.445334 0.5656
632 1 0.628593 0.429845 0.565785
543 1 0.938161 0.00161396 0.561251
636 1 0.75395 0.437377 0.558579
795 1 0.813545 0.00208131 0.812979
113 1 0.500368 0.368173 0.997956
549 1 0.129496 0.129935 0.501151
646 1 0.185059 0.0609122 0.625877
1004 1 0.247762 0.440206 0.933568
528 1 0.371654 0.0576847 0.563367
1000 1 0.124447 0.435055 0.936961
536 1 0.619355 0.0607489 0.558999
662 1 0.687973 0.066894 0.621593
666 1 0.811789 0.0582535 0.618107
516 1 0.0023219 0.0625418 0.563213
689 1 0.499867 0.12864 0.624522
563 1 0.560093 0.126899 0.561444
697 1 0.751602 0.126052 0.6232
548 1 0.00112668 0.181427 0.562753
547 1 0.0709428 0.123926 0.562818
674 1 0.0641265 0.183297 0.630742
678 1 0.187889 0.188042 0.62393
555 1 0.31255 0.123658 0.562172
686 1 0.443346 0.191594 0.621969
694 1 0.688268 0.19232 0.617317
572 1 0.752544 0.192229 0.55466
571 1 0.814485 0.123462 0.557484
701 1 0.880475 0.128132 0.619808
702 1 0.941485 0.187675 0.620872
682 1 0.31235 0.185679 0.621858
591 1 0.4384 0.248383 0.558881
721 1 0.504157 0.256304 0.615848
729 1 0.757856 0.25847 0.621423
576 1 0.881352 0.189203 0.556838
607 1 0.943735 0.250306 0.559322
705 1 1.00091 0.257047 0.629762
706 1 0.0667167 0.311485 0.631998
709 1 0.127964 0.253037 0.627757
587 1 0.312872 0.25108 0.560276
592 1 0.371747 0.308389 0.564003
596 1 0.506861 0.317214 0.557313
725 1 0.628605 0.252033 0.627675
603 1 0.816673 0.255065 0.558554
733 1 0.87452 0.241286 0.624933
734 1 0.932489 0.316105 0.623831
611 1 0.0647358 0.374108 0.564507
584 1 0.121375 0.315943 0.562953
619 1 0.313285 0.379924 0.561141
749 1 0.376394 0.372583 0.622159
623 1 0.445237 0.376375 0.565103
718 1 0.43899 0.310281 0.618944
627 1 0.567971 0.377545 0.559453
726 1 0.693069 0.313083 0.621755
730 1 0.820568 0.312021 0.630741
765 1 0.874116 0.378389 0.622847
639 1 0.939142 0.374499 0.560549
620 1 0.254288 0.444445 0.558512
761 1 0.758059 0.370392 0.623497
762 1 0.811872 0.435198 0.620941
766 1 0.935383 0.436374 0.624962
616 1 0.122637 0.432972 0.567081
927 1 0.938681 0.00540751 0.939423
535 1 0.688143 0.00551254 0.561606
647 1 0.187819 0.00130732 0.687348
1016 1 0.626043 0.432017 0.936693
652 1 0.254226 0.0609934 0.686054
650 1 0.311053 0.0547562 0.62431
899 1 0.0595348 0.00403065 0.931822
613 1 0.127834 0.378305 0.50559
660 1 0.503485 0.0693996 0.689442
664 1 0.628096 0.0646791 0.683667
1011 1 0.567248 0.367053 0.941714
668 1 0.752587 0.0612445 0.687483
672 1 0.87313 0.0562326 0.686607
670 1 0.940396 0.0689481 0.624763
644 1 0.0017669 0.0581441 0.687403
642 1 0.0599668 0.0573319 0.628882
675 1 0.0636579 0.123125 0.693153
648 1 0.124704 0.0613802 0.691634
679 1 0.189211 0.124747 0.689728
685 1 0.381246 0.127662 0.630093
654 1 0.43622 0.0622984 0.62425
658 1 0.559902 0.0680465 0.627609
691 1 0.569184 0.133683 0.685344
693 1 0.62327 0.124033 0.620831
695 1 0.688801 0.12632 0.678825
673 1 0.00173796 0.121634 0.627239
677 1 0.125136 0.118549 0.628784
681 1 0.248637 0.128478 0.624778
683 1 0.306521 0.126769 0.686991
688 1 0.383654 0.192056 0.687986
687 1 0.44118 0.127453 0.686367
692 1 0.500116 0.19551 0.688908
690 1 0.561481 0.193901 0.622211
699 1 0.815819 0.121113 0.686456
703 1 0.937091 0.124694 0.686207
676 1 0.997874 0.18998 0.688628
713 1 0.256292 0.252067 0.624742
719 1 0.437263 0.255488 0.685234
696 1 0.629426 0.188665 0.687589
698 1 0.810003 0.184575 0.614486
731 1 0.817667 0.252002 0.68898
704 1 0.872732 0.18809 0.684773
710 1 0.194272 0.310443 0.624625
714 1 0.314542 0.31714 0.623768
717 1 0.379936 0.245336 0.621816
722 1 0.566353 0.311841 0.61779
728 1 0.629828 0.313526 0.688763
727 1 0.693104 0.253584 0.679585
736 1 0.876142 0.311968 0.697205
735 1 0.933252 0.249845 0.691356
708 1 0.00332329 0.313817 0.688675
739 1 0.064638 0.371788 0.696088
741 1 0.127791 0.373494 0.632065
745 1 0.255899 0.379967 0.620396
716 1 0.255856 0.310269 0.689456
751 1 0.441756 0.365901 0.68604
753 1 0.506159 0.374465 0.625367
755 1 0.56655 0.381239 0.68885
759 1 0.693882 0.371889 0.683344
732 1 0.755247 0.3101 0.687106
763 1 0.815778 0.368385 0.689158
767 1 0.939776 0.375279 0.683354
737 1 0.998054 0.370702 0.622848
742 1 0.192412 0.436629 0.624626
757 1 0.627316 0.376659 0.627218
740 1 0.0040895 0.426866 0.688651
738 1 0.0606836 0.429869 0.627829
746 1 0.317889 0.44053 0.619151
752 1 0.375107 0.435016 0.681812
750 1 0.442206 0.437789 0.626898
754 1 0.562534 0.440307 0.627982
758 1 0.692567 0.435845 0.621134
89 1 0.752114 0.250673 0.995662
789 1 0.618405 0.00205577 0.747905
1667 1 0.0627996 0.495824 0.687885
905 1 0.254807 0.00330451 0.864505
774 1 0.183365 0.0592732 0.750916
782 1 0.432266 0.06653 0.752678
786 1 0.558469 0.0674069 0.753334
794 1 0.817055 0.0632605 0.753744
963 1 0.0702973 0.247601 0.941782
798 1 0.939578 0.0604356 0.745259
770 1 0.0569941 0.0609327 0.748183
805 1 0.127291 0.127592 0.751546
656 1 0.369773 0.0622831 0.683573
817 1 0.498955 0.124109 0.750663
790 1 0.691809 0.0624736 0.742117
829 1 0.873167 0.122087 0.744292
680 1 0.12795 0.186151 0.689823
809 1 0.251301 0.125855 0.747441
825 1 0.746168 0.126994 0.743863
700 1 0.749953 0.187867 0.681455
826 1 0.811717 0.181916 0.748026
833 1 0.998059 0.251511 0.748138
707 1 0.0629949 0.250407 0.692989
711 1 0.198844 0.248759 0.690369
806 1 0.192125 0.187381 0.746894
684 1 0.249675 0.188881 0.685791
723 1 0.565326 0.248801 0.68358
712 1 0.131729 0.304145 0.694016
838 1 0.193881 0.312597 0.748506
715 1 0.315523 0.252738 0.690889
724 1 0.50604 0.315455 0.685912
850 1 0.564165 0.314303 0.750238
857 1 0.750775 0.247226 0.748583
861 1 0.874746 0.244956 0.749043
862 1 0.938466 0.316213 0.751252
869 1 0.131974 0.372995 0.747521
743 1 0.198465 0.375699 0.691335
842 1 0.317939 0.317139 0.752553
720 1 0.374042 0.308276 0.684282
846 1 0.434346 0.311358 0.753433
858 1 0.817016 0.309491 0.757473
893 1 0.879468 0.380103 0.750026
865 1 -0.00060256 0.374537 0.754325
747 1 0.319199 0.375344 0.683576
881 1 0.502877 0.375639 0.749023
885 1 0.633308 0.376361 0.748654
764 1 0.753551 0.438619 0.688667
1669 1 0.128076 0.495095 0.629211
744 1 0.127385 0.436106 0.688241
748 1 0.2602 0.436305 0.688029
756 1 0.502062 0.437569 0.687945
882 1 0.56819 0.440131 0.756566
760 1 0.631764 0.437594 0.692571
886 1 0.696134 0.441256 0.751348
768 1 0.865253 0.442234 0.684861
999 1 0.191123 0.376771 0.934885
894 1 0.943493 0.436882 0.750709
996 1 0.996489 0.440915 0.937744
784 1 0.377854 0.0656854 0.811274
1023 1 0.9344 0.373044 0.932446
54 1 0.686278 0.18951 0.998509
622 1 0.438606 0.441359 0.50444
1679 1 0.435546 0.49856 0.690164
901 1 0.122375 -4.32082e-05 0.87452
988 1 0.754012 0.303929 0.926346
800 1 0.878321 0.0580646 0.814123
772 1 0.00272214 0.0649454 0.811207
778 1 0.316192 0.0584526 0.74876
813 1 0.376453 0.127471 0.741018
788 1 0.494889 0.0646932 0.810214
792 1 0.620707 0.0633059 0.81194
796 1 0.7486 0.0631913 0.809263
801 1 0.999895 0.121237 0.748006
802 1 0.0566561 0.190443 0.7505
803 1 0.0641032 0.12081 0.80908
810 1 0.312212 0.1886 0.742092
811 1 0.312717 0.123897 0.804907
818 1 0.558951 0.190311 0.747671
821 1 0.631356 0.123695 0.747503
822 1 0.689498 0.186175 0.749657
827 1 0.812626 0.126196 0.808759
832 1 0.879322 0.184257 0.808867
830 1 0.94531 0.183409 0.750829
837 1 0.119576 0.25014 0.758588
841 1 0.254806 0.248857 0.752015
814 1 0.444522 0.190449 0.751571
851 1 0.563946 0.249721 0.812635
853 1 0.621777 0.253424 0.74801
824 1 0.62839 0.184913 0.811501
855 1 0.690857 0.246251 0.809805
828 1 0.748222 0.183976 0.808949
834 1 0.0563347 0.308068 0.751272
845 1 0.37867 0.248622 0.746282
849 1 0.499944 0.26089 0.745762
856 1 0.624947 0.313135 0.813467
859 1 0.817029 0.243641 0.81209
863 1 0.939651 0.248498 0.808057
871 1 0.187258 0.370654 0.809706
873 1 0.258756 0.374306 0.749391
883 1 0.564881 0.373958 0.812161
854 1 0.690291 0.312745 0.749204
860 1 0.7536 0.308306 0.812605
891 1 0.819696 0.376435 0.814876
864 1 0.880168 0.311125 0.813472
836 1 0.000455937 0.314197 0.815861
866 1 0.0608957 0.438509 0.752162
876 1 0.248193 0.436474 0.812123
874 1 0.31445 0.439183 0.75439
877 1 0.38064 0.374621 0.748479
879 1 0.438029 0.378823 0.8127
884 1 0.501638 0.443389 0.818243
887 1 0.688291 0.371006 0.814487
889 1 0.756689 0.36935 0.751404
895 1 0.936264 0.373984 0.818908
626 1 0.564207 0.444452 0.50319
872 1 0.128765 0.433811 0.811443
870 1 0.189937 0.434123 0.748672
793 1 0.753884 0.00375821 0.750047
878 1 0.437591 0.438295 0.750198
888 1 0.629203 0.435696 0.811662
890 1 0.813682 0.439278 0.750713
117 1 0.635495 0.370239 0.992936
1937 1 0.498431 0.500188 0.880319
898 1 0.0628092 0.0636061 0.876429
776 1 0.125339 0.064325 0.811037
86 1 0.682975 0.301161 0.992433
780 1 0.251347 0.0645479 0.804215
906 1 0.317427 0.0604282 0.866195
910 1 0.438976 0.0588346 0.879635
513 1 0.00226505 0.00272983 0.506087
1799 1 0.189674 0.499661 0.808172
933 1 0.130004 0.119562 0.874209
807 1 0.189233 0.121821 0.811295
949 1 0.624253 0.128713 0.876894
918 1 0.682989 0.0683664 0.87741
953 1 0.748119 0.127405 0.879555
922 1 0.811846 0.0654633 0.872788
831 1 0.93746 0.122019 0.810897
926 1 0.934981 0.0619161 0.87552
804 1 0.00502941 0.1873 0.816385
930 1 0.0654601 0.184664 0.874564
808 1 0.130862 0.187733 0.814421
812 1 0.251212 0.188712 0.809966
941 1 0.369445 0.123469 0.870729
815 1 0.436705 0.128459 0.81333
820 1 0.496587 0.188275 0.812263
945 1 0.49764 0.126411 0.87551
819 1 0.564715 0.126063 0.814268
823 1 0.684591 0.12031 0.81186
954 1 0.810482 0.184721 0.873016
957 1 0.871758 0.124189 0.875006
929 1 0.99535 0.122582 0.876123
835 1 0.0610806 0.250587 0.818755
839 1 0.188394 0.251614 0.813963
843 1 0.318325 0.249946 0.811738
816 1 0.377582 0.186159 0.808183
847 1 0.436723 0.250677 0.813324
942 1 0.442515 0.191397 0.878998
977 1 0.503196 0.248768 0.871011
946 1 0.562713 0.188327 0.876496
981 1 0.625265 0.243206 0.871448
950 1 0.686876 0.184712 0.873072
985 1 0.74799 0.245525 0.869094
958 1 0.938988 0.186746 0.871964
840 1 0.124651 0.316071 0.81383
844 1 0.252648 0.310208 0.811329
974 1 0.437181 0.31482 0.875355
982 1 0.683679 0.310174 0.872741
989 1 0.875956 0.247796 0.869517
961 1 0.00299127 0.24875 0.878286
962 1 0.0581296 0.309206 0.877241
1001 1 0.252338 0.371658 0.876193
970 1 0.314383 0.309741 0.877923
848 1 0.374717 0.319011 0.816319
852 1 0.500471 0.312222 0.813718
990 1 0.939724 0.30751 0.876622
867 1 0.0612138 0.373918 0.813963
993 1 0.00225899 0.372811 0.881135
998 1 0.188121 0.437843 0.872571
875 1 0.313722 0.38203 0.81703
1002 1 0.311219 0.442083 0.875256
1005 1 0.375704 0.375998 0.883408
1021 1 0.873449 0.375806 0.878636
1025 1 0.997135 0.50108 0.99797
785 1 0.496816 -0.00117394 0.752905
880 1 0.377124 0.444672 0.812439
1006 1 0.432294 0.440774 0.874843
1539 1 0.0658443 0.496218 0.560024
892 1 0.757091 0.437756 0.812241
1018 1 0.81668 0.437567 0.876316
896 1 0.876272 0.440451 0.809373
868 1 0.997726 0.437436 0.818633
900 1 0.996863 0.0631805 0.935847