ITEM: TIMESTEP
100000
ITEM: NUMBER OF ATOMS
2048
ITEM: BOX BOUNDS pp pp pp
0.0000000000000000e+00 1.1950412657485773e+01
0.0000000000000000e+00 1.1950412657485773e+01
0.0000000000000000e+00 1.1950412657485773e+01
ITEM: ATOMS id type xs ys zs
9 1 0.254715 0.00603278 0.0151555
13 1 0.369422 0.00696094 0.000753082
15 1 0.433875 0.00989913 0.0553423
18 1 0.561072 0.0493812 0.00885183
928 1 0.821804 0.0534645 0.00236091
2 1 0.073893 0.061189 0.000341636
41 1 0.186912 0.0560662 0.000718976
10 1 0.317055 0.0679675 0.00531938
53 1 0.621714 0.110578 0.0113408
30 1 0.946532 0.0679984 0.0167584
35 1 0.0606252 0.132981 0.0522372
940 1 0.243156 0.120822 0.00152631
47 1 0.43479 0.122691 0.0516392
61 1 0.869128 0.127556 0.00589591
38 1 0.188004 0.186341 0.0122758
48 1 0.374463 0.185392 0.052115
54 1 0.692824 0.19309 0.00432185
58 1 0.808924 0.187828 0.00359919
62 1 0.927952 0.183128 0.00310728
69 1 0.138028 0.25326 0.00349817
81 1 0.499561 0.256159 0.00574501
93 1 0.873069 0.245668 0.00299664
976 1 0.32081 0.317118 0.00908762
113 1 0.429336 0.315245 0.00927757
92 1 0.748141 0.318537 0.0514289
94 1 0.940719 0.306201 0.00812735
99 1 0.0597076 0.370306 0.0502848
101 1 0.123181 0.373879 0.0016412
105 1 0.249565 0.374909 0.00627209
109 1 0.372711 0.381247 0.00129821
78 1 0.488127 0.366814 0.00326295
117 1 0.619797 0.370791 0.00164873
123 1 0.803615 0.374697 0.0532341
110 1 0.431416 0.439541 0.00634054
122 1 0.807256 0.442367 0.00272001
1029 1 0.130716 0.499475 0.00232541
1041 1 0.499967 0.497724 0.0115223
120 1 0.627893 0.447023 0.0548746
128 1 0.87369 0.447702 0.0543866
11 1 0.326835 0.00507315 0.0644788
24 1 0.634566 0.0425734 0.0589943
23 1 0.703366 0.00350003 0.0706887
1152 1 0.825468 0.00376002 0.0781201
4 1 0.0132579 0.0668343 0.0685495
8 1 0.124727 0.0635003 0.0695429
12 1 0.239852 0.0673941 0.0646403
16 1 0.378599 0.0671575 0.0628869
20 1 0.499774 0.0560533 0.0647492
28 1 0.760715 0.0617957 0.0627702
32 1 0.879248 0.0714766 0.0660683
39 1 0.181403 0.128094 0.0700222
43 1 0.306225 0.128194 0.0622461
51 1 0.561432 0.122756 0.0619083
55 1 0.684915 0.128119 0.0593193
59 1 0.816754 0.125742 0.0672636
63 1 0.936724 0.131757 0.0744476
40 1 0.123376 0.189535 0.0656333
44 1 0.251208 0.187252 0.0567235
52 1 0.507187 0.18564 0.0663149
56 1 0.631083 0.183908 0.062332
60 1 0.753005 0.183069 0.0656166
186 1 0.87753 0.189342 0.0636469
36 1 0.992997 0.18692 0.0563137
67 1 0.0722026 0.252587 0.0594507
71 1 0.205099 0.259042 0.0730138
75 1 0.312874 0.244972 0.0630251
79 1 0.440488 0.253587 0.0668335
83 1 0.555771 0.252377 0.067095
87 1 0.685126 0.245141 0.0672792
91 1 0.815443 0.251431 0.0611953
64 1 0.935767 0.245423 0.0684353
95 1 0.00980402 0.302408 0.062775
72 1 0.128227 0.312235 0.0582765
76 1 0.263748 0.311376 0.0592538
80 1 0.376297 0.315183 0.0729782
84 1 0.510074 0.32334 0.071524
88 1 0.623383 0.298763 0.0690471
96 1 0.871353 0.318234 0.0682766
103 1 0.189861 0.36901 0.064015
107 1 0.309765 0.386823 0.0601998
111 1 0.434281 0.379001 0.0674595
115 1 0.573999 0.380022 0.0656727
119 1 0.674719 0.378693 0.0639901
100 1 0.00417724 0.433275 0.0771902
104 1 0.123546 0.433164 0.0573228
108 1 0.24455 0.434958 0.0584769
112 1 0.37011 0.435606 0.0634957
116 1 0.493572 0.435739 0.0661898
124 1 0.747236 0.444113 0.0658015
68 1 0.934931 0.391831 0.0611349
1027 1 0.069867 0.491786 0.0559099
1031 1 0.185342 0.491184 0.062135
1035 1 0.307014 0.498964 0.0630453
1051 1 0.809668 0.499226 0.0663609
1055 1 0.944691 0.498304 0.0658172
130 1 0.0638306 0.0502666 0.130739
137 1 0.263372 0.00629018 0.128455
141 1 0.392992 0.00704672 0.122588
145 1 0.512503 0.000507076 0.139431
157 1 0.889581 0.00211271 0.129001
134 1 0.187737 0.0594308 0.129911
138 1 0.318946 0.068033 0.119631
142 1 0.451092 0.0649228 0.128346
146 1 0.567026 0.0602092 0.112365
150 1 0.691039 0.0640457 0.124649
154 1 0.805201 0.0704005 0.12607
158 1 0.945567 0.0638358 0.126127
161 1 0.0023878 0.129713 0.116113
165 1 0.116015 0.118518 0.122899
169 1 0.25557 0.127462 0.122171
173 1 0.394812 0.137635 0.127287
177 1 0.508323 0.124764 0.125271
181 1 0.624311 0.117908 0.120375
185 1 0.746167 0.126855 0.124344
189 1 0.880232 0.119772 0.130348
162 1 0.0572316 0.186458 0.120229
166 1 0.200807 0.192754 0.122324
170 1 0.319807 0.181995 0.128467
174 1 0.445634 0.199475 0.134557
178 1 0.572396 0.187028 0.121026
182 1 0.691634 0.191545 0.123862
219 1 0.816507 0.191815 0.119783
190 1 0.934804 0.191917 0.126412
197 1 0.131126 0.253246 0.123097
201 1 0.259375 0.24917 0.138833
205 1 0.369768 0.262181 0.129756
209 1 0.502108 0.251491 0.124014
213 1 0.635006 0.249579 0.129937
217 1 0.755939 0.251351 0.121454
221 1 0.87871 0.248237 0.134983
193 1 0.999477 0.247352 0.121185
194 1 0.0699081 0.307244 0.115956
198 1 0.190331 0.313465 0.131824
202 1 0.314429 0.323508 0.123095
206 1 0.43999 0.323143 0.131974
210 1 0.56724 0.300807 0.129081
214 1 0.683504 0.313092 0.122921
218 1 0.806025 0.315577 0.125709
222 1 0.937267 0.307679 0.121102
225 1 0.00211107 0.365397 0.120335
229 1 0.130351 0.36905 0.116495
233 1 0.251303 0.368173 0.130795
237 1 0.370747 0.377403 0.124005
241 1 0.503402 0.379997 0.127539
245 1 0.624776 0.374726 0.130182
249 1 0.748172 0.376532 0.1271
253 1 0.875427 0.385086 0.117233
226 1 0.0653027 0.433902 0.129776
230 1 0.185255 0.433537 0.124501
234 1 0.306179 0.436304 0.127678
238 1 0.432481 0.433998 0.127957
246 1 0.684021 0.432396 0.123345
250 1 0.809871 0.431584 0.115644
1153 1 0.0118979 0.499075 0.125462
1157 1 0.12587 0.48899 0.117576
1161 1 0.248992 0.490268 0.12548
1165 1 0.368875 0.491804 0.117644
1169 1 0.49598 0.499185 0.115349
242 1 0.56576 0.445031 0.116096
1177 1 0.750314 0.485807 0.137614
254 1 0.935985 0.447022 0.1279
135 1 0.201701 0.000387082 0.185264
139 1 0.328229 0.00164939 0.190795
143 1 0.446995 0.0140828 0.195744
159 1 0.941927 0.00339562 0.189139
136 1 0.130622 0.0574341 0.190965
140 1 0.264246 0.0663394 0.178961
144 1 0.376221 0.0699745 0.191248
148 1 0.510825 0.0670908 0.190789
152 1 0.62565 0.0657737 0.18386
156 1 0.75431 0.0602742 0.18866
160 1 0.875628 0.0567631 0.184101
132 1 0.999723 0.0675897 0.189911
163 1 0.0571917 0.124804 0.185208
167 1 0.177297 0.124682 0.190915
171 1 0.322384 0.130202 0.190777
175 1 0.448979 0.130259 0.192138
179 1 0.567776 0.127227 0.183039
183 1 0.694795 0.117134 0.196595
187 1 0.811166 0.130553 0.180739
191 1 0.942261 0.127186 0.183733
164 1 0.00279618 0.18649 0.183559
168 1 0.128469 0.189581 0.180688
172 1 0.266179 0.187837 0.18625
176 1 0.385373 0.187269 0.192894
180 1 0.51683 0.188024 0.177614
184 1 0.622613 0.186266 0.18496
188 1 0.746884 0.189469 0.188915
192 1 0.875988 0.184016 0.187895
195 1 0.0677189 0.242883 0.177724
199 1 0.187618 0.251213 0.179459
203 1 0.308894 0.258787 0.198338
207 1 0.434841 0.2551 0.19216
211 1 0.571083 0.252042 0.194882
215 1 0.701013 0.257937 0.193803
346 1 0.808497 0.249358 0.183936
223 1 0.93836 0.246937 0.193381
196 1 0.00760176 0.308227 0.183657
200 1 0.127382 0.307561 0.18259
204 1 0.244807 0.311182 0.187957
208 1 0.366393 0.316059 0.188052
212 1 0.499951 0.306527 0.187979
216 1 0.630272 0.311414 0.186134
220 1 0.753192 0.323315 0.187575
224 1 0.868668 0.321031 0.177862
227 1 0.0743157 0.368468 0.173962
231 1 0.192083 0.373588 0.189296
235 1 0.298648 0.381362 0.197809
239 1 0.428443 0.376899 0.195944
243 1 0.560612 0.373512 0.184125
247 1 0.680148 0.38311 0.187643
251 1 0.814614 0.377342 0.178333
255 1 0.941346 0.369613 0.173972
232 1 0.127976 0.42888 0.187748
236 1 0.24936 0.442322 0.190549
240 1 0.363491 0.433866 0.185605
244 1 0.507537 0.443868 0.17708
248 1 0.621794 0.440474 0.186802
252 1 0.747028 0.430716 0.199214
228 1 0.997673 0.44279 0.186129
1155 1 0.0756224 0.496611 0.183624
1163 1 0.310572 0.496983 0.183349
1175 1 0.689676 0.487078 0.190068
256 1 0.87606 0.452332 0.177867
265 1 0.257924 0.000658514 0.239752
269 1 0.381893 0.00417843 0.25019
273 1 0.505467 0.000295809 0.252441
278 1 0.630502 2.09766e-05 0.254186
285 1 0.87211 0.0042171 0.24291
257 1 0.994582 0.00832288 0.256762
258 1 0.0686082 0.0597396 0.252115
262 1 0.199583 0.0660539 0.249624
266 1 0.301968 0.0652154 0.250833
270 1 0.440163 0.0750767 0.247914
274 1 0.566941 0.0654615 0.248422
281 1 0.692201 0.0565721 0.24999
282 1 0.814479 0.063145 0.249191
286 1 0.937899 0.0738677 0.250343
289 1 0.0061119 0.115962 0.258438
293 1 0.127574 0.121764 0.26002
297 1 0.257629 0.129998 0.251474
301 1 0.370757 0.122708 0.264942
305 1 0.505442 0.123836 0.251944
309 1 0.625314 0.123156 0.264705
313 1 0.754619 0.123127 0.268018
317 1 0.866821 0.131192 0.244148
290 1 0.0620067 0.174896 0.246906
294 1 0.183203 0.191933 0.242357
298 1 0.301517 0.197071 0.260632
302 1 0.437056 0.182339 0.258684
306 1 0.565825 0.180692 0.251404
310 1 0.694996 0.187962 0.2523
314 1 0.80802 0.187476 0.239084
318 1 0.935719 0.184253 0.243731
321 1 0.00681079 0.238569 0.247025
325 1 0.123719 0.24436 0.242424
329 1 0.239482 0.254098 0.249578
333 1 0.370176 0.241976 0.254228
337 1 0.507132 0.2391 0.254493
341 1 0.634941 0.258467 0.248503
345 1 0.750336 0.259215 0.258716
349 1 0.877952 0.245987 0.249998
322 1 0.0681871 0.309359 0.242315
326 1 0.176778 0.300432 0.264194
330 1 0.319967 0.308536 0.261852
334 1 0.425945 0.312446 0.245458
338 1 0.56348 0.311726 0.259159
342 1 0.683461 0.321056 0.251126
352 1 0.812578 0.320416 0.248093
350 1 0.951442 0.311321 0.24189
353 1 0.00282966 0.375253 0.242247
357 1 0.129116 0.375597 0.244886
361 1 0.240448 0.370866 0.256763
365 1 0.363255 0.38132 0.247662
369 1 0.497494 0.376809 0.242308
373 1 0.622777 0.37785 0.252512
377 1 0.752535 0.372926 0.253878
381 1 0.890245 0.369206 0.248111
354 1 0.0613572 0.43474 0.2418
358 1 0.192316 0.43653 0.245997
370 1 0.558538 0.440627 0.243772
374 1 0.680971 0.434074 0.254502
378 1 0.820557 0.431541 0.238145
382 1 0.937404 0.441183 0.24608
1281 1 0.00136219 0.494289 0.248441
362 1 0.306027 0.447062 0.253073
366 1 0.41906 0.446265 0.245263
1301 1 0.622194 0.496419 0.245026
1305 1 0.752309 0.492838 0.24977
1309 1 0.880419 0.4961 0.245416
263 1 0.193432 0.00821588 0.314287
271 1 0.437224 0.00955036 0.30146
275 1 0.573758 0.0024475 0.310205
279 1 0.702103 0.000296859 0.304499
283 1 0.806474 0.00437296 0.304261
287 1 0.923986 0.00855641 0.313001
390 1 0.137216 0.0657495 0.318103
268 1 0.253098 0.0585879 0.321098
398 1 0.371024 0.0586158 0.31471
276 1 0.50548 0.0650439 0.314478
280 1 0.627287 0.0642949 0.318161
284 1 0.741158 0.0679643 0.323511
288 1 0.867314 0.0638226 0.312952
260 1 0.998294 0.0600896 0.318048
295 1 0.0689203 0.114812 0.314415
421 1 0.194657 0.1202 0.308306
299 1 0.308128 0.120624 0.316137
303 1 0.433725 0.12799 0.317912
307 1 0.556004 0.130918 0.319333
311 1 0.691964 0.133508 0.319665
315 1 0.82295 0.1321 0.311148
319 1 0.93786 0.122841 0.320884
291 1 0.00353311 0.183427 0.314576
296 1 0.131589 0.185966 0.31408
300 1 0.24483 0.180455 0.318779
304 1 0.385786 0.190679 0.319179
308 1 0.494763 0.197695 0.322358
312 1 0.627959 0.198431 0.302223
347 1 0.761079 0.195692 0.311862
320 1 0.878189 0.189341 0.304283
323 1 0.0681358 0.242017 0.302758
327 1 0.195502 0.240905 0.319155
331 1 0.322172 0.251551 0.324189
335 1 0.437197 0.251664 0.301665
339 1 0.548484 0.257456 0.318399
343 1 0.692063 0.253705 0.312734
477 1 0.818526 0.254724 0.306085
292 1 0.941961 0.238773 0.310344
324 1 0.00434002 0.300795 0.313616
328 1 0.119474 0.306684 0.315108
332 1 0.261088 0.310846 0.322929
336 1 0.37921 0.307071 0.320134
340 1 0.493802 0.317446 0.306875
344 1 0.628368 0.311448 0.313241
348 1 0.75967 0.323772 0.315939
351 1 0.879158 0.307642 0.310632
355 1 0.0661307 0.374512 0.310521
359 1 0.181792 0.369462 0.312376
363 1 0.30619 0.383347 0.300015
367 1 0.435691 0.381453 0.304758
371 1 0.562141 0.376556 0.307891
375 1 0.686259 0.376833 0.310334
379 1 0.822391 0.377478 0.324268
383 1 0.952145 0.363807 0.301409
356 1 0.00802579 0.428256 0.307586
360 1 0.129883 0.430003 0.310355
364 1 0.237359 0.433484 0.309637
376 1 0.625587 0.435219 0.317704
1283 1 0.074862 0.496228 0.311084
368 1 0.361239 0.444651 0.308682
372 1 0.50402 0.446185 0.31252
380 1 0.751826 0.445074 0.322679
384 1 0.874386 0.444723 0.31192
1311 1 0.948532 0.498943 0.313013
385 1 0.00414912 0.00314385 0.376194
389 1 0.137753 0.00421635 0.377268
397 1 0.383901 0.00153764 0.375382
401 1 0.505117 0.00856611 0.385187
402 1 0.575223 0.0517688 0.380754
409 1 0.751372 0.00526741 0.377675
413 1 0.86069 0.00891325 0.372927
386 1 0.0641847 0.0585669 0.37241
391 1 0.194643 0.0604167 0.388301
394 1 0.321465 0.055767 0.380061
399 1 0.440307 0.0607246 0.364309
406 1 0.692977 0.0698353 0.386622
410 1 0.80509 0.0675531 0.369754
414 1 0.945293 0.0673215 0.379159
417 1 0.00662625 0.124902 0.379624
419 1 0.126665 0.129425 0.373045
425 1 0.253389 0.118622 0.380197
429 1 0.369415 0.123248 0.369497
433 1 0.499754 0.114937 0.376098
437 1 0.634506 0.134066 0.384093
441 1 0.752951 0.12535 0.379604
445 1 0.87185 0.128766 0.375279
418 1 0.0610423 0.190965 0.368282
422 1 0.191285 0.173808 0.383905
426 1 0.306438 0.179043 0.373626
430 1 0.437343 0.195875 0.386001
434 1 0.558977 0.200278 0.371847
316 1 0.695026 0.189761 0.37943
442 1 0.814109 0.194209 0.374017
446 1 0.942456 0.180166 0.37689
453 1 0.121546 0.243712 0.370553
457 1 0.25455 0.240998 0.375715
465 1 0.493537 0.265309 0.374679
469 1 0.631555 0.252674 0.372358
473 1 0.752544 0.24714 0.371391
478 1 0.884665 0.248953 0.369529
449 1 0.998395 0.239587 0.377991
450 1 0.0575628 0.292174 0.373396
454 1 0.195813 0.315888 0.369295
458 1 0.311627 0.305332 0.384868
462 1 0.436706 0.323964 0.379071
466 1 0.555116 0.319026 0.369644
470 1 0.694099 0.311185 0.369298
474 1 0.811688 0.315593 0.372741
509 1 0.94623 0.313026 0.369779
481 1 0.0143977 0.367664 0.371314
485 1 0.129931 0.369596 0.380657
489 1 0.25288 0.373121 0.383933
493 1 0.365781 0.370614 0.372017
497 1 0.497753 0.378881 0.374752
501 1 0.621229 0.370433 0.371437
505 1 0.745067 0.379933 0.372485
512 1 0.893683 0.371631 0.361975
482 1 0.0648257 0.432694 0.364199
486 1 0.187131 0.430955 0.373944
490 1 0.300751 0.436305 0.366522
494 1 0.420271 0.436758 0.363239
498 1 0.567869 0.43517 0.371022
502 1 0.686732 0.438842 0.373849
506 1 0.821118 0.441645 0.374306
510 1 0.948607 0.436465 0.369266
1409 1 0.00936374 0.498728 0.370806
1413 1 0.133708 0.495031 0.364939
1417 1 0.250039 0.499244 0.379063
1429 1 0.620285 0.499171 0.370154
1437 1 0.88849 0.495599 0.37499
1516 1 0.191247 0.000352781 0.440339
1520 1 0.438335 0.00230057 0.434069
407 1 0.689073 0.00528024 0.437124
411 1 0.813085 0.00134458 0.440948
415 1 0.930335 0.00315667 0.432143
388 1 0.00436675 0.0590158 0.435814
392 1 0.132483 0.0610899 0.440407
396 1 0.258189 0.0616632 0.442939
400 1 0.388335 0.0668996 0.436208
404 1 0.498056 0.0626018 0.444024
408 1 0.630977 0.0655243 0.443339
412 1 0.757088 0.0588682 0.436947
416 1 0.874778 0.0579274 0.434709
545 1 0.068481 0.121497 0.429153
431 1 0.448977 0.133845 0.439469
435 1 0.565321 0.115229 0.425905
439 1 0.693083 0.130522 0.443072
443 1 0.817288 0.124138 0.435864
447 1 0.938441 0.121477 0.432336
424 1 0.127331 0.187565 0.435727
428 1 0.257795 0.175237 0.4435
432 1 0.380101 0.176082 0.440228
436 1 0.509785 0.191477 0.434693
438 1 0.624842 0.2007 0.436934
444 1 0.75401 0.199786 0.439126
448 1 0.881837 0.179689 0.432954
451 1 0.0685464 0.244887 0.440136
455 1 0.198079 0.241656 0.437668
461 1 0.389775 0.257784 0.391297
467 1 0.560804 0.258835 0.429381
471 1 0.687969 0.252942 0.432681
475 1 0.824942 0.254587 0.434468
479 1 0.942569 0.236772 0.439712
452 1 0.00609584 0.304674 0.42994
456 1 0.1346 0.302617 0.431392
460 1 0.247128 0.309714 0.432466
464 1 0.37542 0.319665 0.442427
468 1 0.500402 0.316055 0.442285
472 1 0.629413 0.310976 0.430699
476 1 0.749638 0.315842 0.427936
480 1 0.883745 0.316056 0.42026
483 1 0.0671731 0.362588 0.440281
487 1 0.185744 0.37647 0.436748
495 1 0.419726 0.3882 0.4285
499 1 0.563364 0.368965 0.432029
503 1 0.681164 0.372403 0.423369
507 1 0.814186 0.376665 0.421663
511 1 0.938816 0.370999 0.430946
484 1 0.0107608 0.435519 0.428835
488 1 0.127898 0.435454 0.429322
492 1 0.249214 0.436498 0.435857
496 1 0.358146 0.440406 0.431188
500 1 0.501765 0.431547 0.430088
504 1 0.622189 0.43774 0.428025
508 1 0.748693 0.440419 0.430124
638 1 0.881972 0.428131 0.424117
1415 1 0.179796 0.499934 0.436108
1423 1 0.437322 0.490059 0.431447
1439 1 0.950913 0.499254 0.437011
387 1 0.0703072 0.00135228 0.445287
518 1 0.189459 0.0545826 0.499139
522 1 0.32012 0.0514133 0.495426
565 1 0.638653 0.00341444 0.498975
537 1 0.755527 0.00579393 0.498713
526 1 0.438792 0.0651792 0.498635
534 1 0.691907 0.0690168 0.497243
538 1 0.81808 0.0654585 0.494036
575 1 0.00867877 0.124537 0.497157
423 1 0.192836 0.117441 0.447874
427 1 0.316629 0.122902 0.448421
561 1 0.508566 0.12475 0.498242
440 1 0.628556 0.132936 0.492217
569 1 0.76063 0.121267 0.492695
573 1 0.882501 0.117137 0.498
420 1 0.0166045 0.181482 0.444648
562 1 0.568073 0.191789 0.490457
566 1 0.70259 0.189115 0.497987
570 1 0.811871 0.182232 0.498015
577 1 0.00157602 0.249313 0.490967
581 1 0.130629 0.247102 0.499397
585 1 0.248975 0.251712 0.49639
459 1 0.321974 0.243649 0.452888
463 1 0.443232 0.254915 0.447048
601 1 0.745388 0.25904 0.494805
605 1 0.880077 0.239045 0.488154
582 1 0.183289 0.313271 0.497333
594 1 0.566563 0.320795 0.493834
598 1 0.682718 0.311491 0.490676
602 1 0.826703 0.308677 0.495901
606 1 0.932745 0.309701 0.48533
613 1 0.121268 0.374955 0.495135
617 1 0.245695 0.370246 0.490761
491 1 0.310877 0.37101 0.44455
625 1 0.509404 0.377577 0.495673
629 1 0.630434 0.376521 0.49415
633 1 0.767182 0.372241 0.492763
637 1 0.87245 0.373122 0.48988
609 1 0.996836 0.363981 0.493832
610 1 0.0571103 0.421511 0.498415
614 1 0.186617 0.431541 0.492606
630 1 0.687633 0.436589 0.487392
634 1 0.815239 0.435074 0.497685
612 1 0.938146 0.425174 0.488813
1411 1 0.0730166 0.497998 0.44831
1545 1 0.238241 0.494261 0.491689
1549 1 0.371787 0.493954 0.496824
1427 1 0.561694 0.489462 0.446879
1565 1 0.882781 0.486735 0.490361
525 1 0.382569 0.00046787 0.500117
541 1 0.869162 0.000401023 0.503787
514 1 0.078764 0.0633085 0.51086
530 1 0.571634 0.0604132 0.500772
542 1 0.946132 0.0560466 0.501623
551 1 0.130198 0.120855 0.501664
553 1 0.250046 0.118684 0.503025
557 1 0.379451 0.126148 0.502511
563 1 0.567035 0.135784 0.555192
567 1 0.687423 0.133953 0.552572
546 1 0.0718459 0.195133 0.503523
550 1 0.189022 0.182193 0.510611
556 1 0.254672 0.190183 0.552907
554 1 0.323992 0.181302 0.504928
558 1 0.445638 0.195888 0.504169
572 1 0.759443 0.179773 0.555139
574 1 0.935819 0.17739 0.50407
589 1 0.383433 0.255124 0.508687
593 1 0.510339 0.257212 0.505131
597 1 0.617566 0.252654 0.506568
578 1 0.0691401 0.298186 0.500584
586 1 0.310025 0.313258 0.507177
590 1 0.437548 0.314949 0.50076
604 1 0.745154 0.312029 0.553959
608 1 0.886081 0.293212 0.55086
580 1 0.997238 0.300796 0.554743
621 1 0.371452 0.375271 0.501716
620 1 0.242781 0.429451 0.5497
618 1 0.314539 0.43507 0.504247
622 1 0.441568 0.429733 0.501774
626 1 0.570302 0.433457 0.506892
1541 1 0.126679 0.493796 0.50772
1547 1 0.301175 0.498474 0.547262
1557 1 0.627608 0.496111 0.500211
1537 1 0.9991 0.489542 0.507149
515 1 0.0701886 0.000604288 0.569914
520 1 0.139277 0.0533431 0.566891
527 1 0.447673 0.000374913 0.568795
535 1 0.694201 0.0119351 0.561034
539 1 0.806951 0.00576125 0.564939
516 1 0.00242376 0.0607169 0.562765
524 1 0.242596 0.0665733 0.566689
528 1 0.388702 0.0708936 0.562813
532 1 0.514945 0.0695984 0.56047
536 1 0.620595 0.0634666 0.563063
540 1 0.749882 0.0693824 0.560618
544 1 0.869719 0.0605245 0.570686
549 1 0.0674165 0.12857 0.559932
677 1 0.185584 0.127114 0.573176
555 1 0.311033 0.123783 0.562346
559 1 0.446011 0.127953 0.557294
571 1 0.813592 0.121614 0.568814
670 1 0.952417 0.125858 0.55873
548 1 0.00692775 0.183766 0.559641
552 1 0.129715 0.180945 0.568316
560 1 0.37996 0.191867 0.561519
564 1 0.512109 0.197802 0.565117
568 1 0.630142 0.189226 0.572307
576 1 0.866802 0.191502 0.556671
579 1 0.0676898 0.242894 0.56917
583 1 0.185648 0.25679 0.556244
713 1 0.317298 0.256852 0.567612
591 1 0.437382 0.246139 0.569881
595 1 0.573238 0.251459 0.573516
599 1 0.687742 0.251964 0.562089
603 1 0.807376 0.260918 0.564413
607 1 0.943654 0.230634 0.568145
584 1 0.125297 0.30898 0.563472
588 1 0.248068 0.314134 0.561832
592 1 0.377554 0.327614 0.564535
596 1 0.500328 0.322208 0.55683
600 1 0.629473 0.320529 0.555562
611 1 0.0530027 0.364657 0.557266
615 1 0.177416 0.371849 0.559067
619 1 0.307543 0.383146 0.567904
623 1 0.444608 0.377182 0.565156
628 1 0.567386 0.378613 0.56447
631 1 0.685778 0.382329 0.556914
635 1 0.813277 0.369387 0.557296
765 1 0.885756 0.373539 0.604189
639 1 0.950462 0.362529 0.558934
738 1 0.00234656 0.429313 0.564962
616 1 0.112845 0.425668 0.561601
624 1 0.368805 0.43596 0.571662
1681 1 0.502606 0.433616 0.556518
632 1 0.631021 0.442857 0.567703
636 1 0.760922 0.443394 0.569894
1539 1 0.064299 0.491437 0.563549
1543 1 0.188473 0.489824 0.563562
1551 1 0.435753 0.483826 0.560381
1559 1 0.692237 0.493239 0.561044
640 1 0.880561 0.448973 0.564676
645 1 0.13854 0.00680952 0.634566
649 1 0.23671 0.00593914 0.620648
653 1 0.379066 0.0141161 0.61559
661 1 0.625207 0.00776606 0.628969
665 1 0.753265 0.000504006 0.632418
669 1 0.875669 0.00895721 0.63332
642 1 0.0654971 0.0668323 0.620734
646 1 0.187457 0.0688253 0.629195
650 1 0.308509 0.0556895 0.638204
654 1 0.451514 0.0703825 0.614457
658 1 0.567227 0.066055 0.632124
662 1 0.692995 0.0663458 0.624208
666 1 0.813426 0.0702165 0.628902
543 1 0.935124 0.0635367 0.616479
673 1 0.00764468 0.123671 0.619475
547 1 0.123648 0.120843 0.626194
681 1 0.256508 0.126218 0.624574
685 1 0.365745 0.124083 0.621164
689 1 0.512872 0.129704 0.624377
693 1 0.617525 0.1246 0.61792
697 1 0.755937 0.133991 0.626296
701 1 0.881413 0.139254 0.625916
674 1 0.0685437 0.179258 0.626703
678 1 0.186573 0.196718 0.639736
682 1 0.30527 0.194899 0.622458
686 1 0.435293 0.184588 0.630091
690 1 0.567881 0.188657 0.625441
694 1 0.692917 0.190044 0.62366
698 1 0.816161 0.188633 0.625245
702 1 0.950206 0.183876 0.632275
709 1 0.118343 0.246194 0.630686
714 1 0.240892 0.247329 0.613642
717 1 0.37538 0.248428 0.624434
721 1 0.499303 0.256672 0.6214
725 1 0.639119 0.259375 0.624399
729 1 0.75207 0.251115 0.625288
733 1 0.877339 0.245467 0.618729
705 1 0.995325 0.260196 0.62488
706 1 0.0654272 0.30724 0.626322
710 1 0.178226 0.299203 0.623107
587 1 0.291075 0.311012 0.628122
718 1 0.436531 0.311578 0.625684
722 1 0.550587 0.32008 0.624146
726 1 0.690479 0.317686 0.616513
730 1 0.823973 0.308407 0.628375
734 1 0.936799 0.315302 0.628346
737 1 0.00588911 0.365972 0.624584
741 1 0.129112 0.37073 0.627127
747 1 0.240111 0.375701 0.62028
749 1 0.362844 0.377273 0.628201
753 1 0.503809 0.384745 0.624645
757 1 0.629475 0.374358 0.627533
761 1 0.753661 0.371361 0.614063
1669 1 0.0566779 0.432543 0.627271
745 1 0.182767 0.430273 0.623122
746 1 0.300198 0.43914 0.626087
750 1 0.427206 0.429527 0.628614
627 1 0.564154 0.44356 0.61294
758 1 0.693272 0.433893 0.626857
766 1 0.937775 0.440613 0.6158
742 1 0.126347 0.49774 0.616581
1673 1 0.239193 0.499664 0.621656
1685 1 0.63389 0.49963 0.624962
762 1 0.81918 0.454438 0.623932
1665 1 0.995321 0.496947 0.627566
643 1 0.0657865 0.00377457 0.68308
647 1 0.1888 0.00237211 0.694428
651 1 0.314777 0.0024471 0.702356
655 1 0.441702 0.00432194 0.684405
667 1 0.81543 0.00274041 0.68876
671 1 0.938116 0.0108526 0.686614
644 1 0.00715805 0.0608619 0.678752
648 1 0.127365 0.0668246 0.695096
652 1 0.250372 0.0624613 0.693839
656 1 0.38644 0.0614471 0.68261
817 1 0.506003 0.063932 0.689981
664 1 0.635111 0.0825357 0.685351
668 1 0.756957 0.0586543 0.693458
672 1 0.879522 0.0651462 0.695329
675 1 0.0689197 0.117442 0.690036
679 1 0.18856 0.125755 0.688744
683 1 0.312118 0.128362 0.691234
687 1 0.441376 0.131376 0.696015
691 1 0.565245 0.123722 0.692075
695 1 0.70039 0.13491 0.681642
699 1 0.825334 0.125518 0.684251
703 1 0.934798 0.128671 0.689814
676 1 0.00890936 0.182784 0.688684
680 1 0.123484 0.179972 0.690861
684 1 0.24428 0.190394 0.695188
688 1 0.377805 0.176687 0.684837
692 1 0.501 0.183321 0.682261
696 1 0.632003 0.182918 0.679731
700 1 0.754848 0.197979 0.691193
704 1 0.881535 0.199566 0.685573
707 1 0.0536662 0.247005 0.681532
711 1 0.187691 0.250546 0.699392
715 1 0.304671 0.245746 0.68485
849 1 0.433253 0.252996 0.683806
723 1 0.567567 0.246894 0.684589
727 1 0.690213 0.249729 0.68578
731 1 0.819033 0.253948 0.691916
735 1 0.935816 0.26377 0.691152
708 1 0.00706016 0.310682 0.699841
712 1 0.125904 0.314981 0.690579
873 1 0.243905 0.310659 0.688687
719 1 0.356222 0.310273 0.668119
724 1 0.491871 0.308925 0.68641
728 1 0.640943 0.314572 0.682585
732 1 0.74661 0.310856 0.685772
736 1 0.88075 0.320776 0.688125
739 1 0.0623116 0.367853 0.685366
743 1 0.180934 0.376841 0.692365
720 1 0.296848 0.378469 0.681435
751 1 0.429135 0.367431 0.683884
755 1 0.557069 0.371997 0.696278
759 1 0.699933 0.374454 0.67912
763 1 0.822111 0.383837 0.672379
767 1 0.93446 0.383107 0.694327
744 1 0.115343 0.433428 0.684578
748 1 0.234176 0.443114 0.688892
752 1 0.367538 0.434607 0.686687
760 1 0.624078 0.436911 0.675433
764 1 0.763457 0.437701 0.680399
768 1 0.87478 0.439861 0.68416
740 1 0.995101 0.434932 0.684663
1671 1 0.175241 0.495799 0.678004
1679 1 0.429537 0.490338 0.682453
756 1 0.498541 0.444769 0.687206
1683 1 0.56119 0.497825 0.698385
1687 1 0.685285 0.491429 0.688862
1695 1 0.939247 0.496265 0.691675
1894 1 0.116784 0.000834157 0.755908
777 1 0.253452 0.00142173 0.752984
781 1 0.377229 0.00187908 0.746626
785 1 0.492233 0.000247802 0.749621
789 1 0.620511 0.0018899 0.752963
797 1 0.878431 0.00197188 0.749591
769 1 0.992349 0.0104912 0.744076
770 1 0.0593802 0.0672252 0.756667
774 1 0.191787 0.0619657 0.752556
778 1 0.308531 0.0713787 0.753201
782 1 0.437433 0.0713055 0.750216
786 1 0.559607 0.064149 0.752562
790 1 0.689339 0.0647379 0.746282
794 1 0.817857 0.0693552 0.753465
798 1 0.943462 0.0723968 0.749741
801 1 0.00254131 0.127828 0.757854
805 1 0.118858 0.123683 0.753176
809 1 0.246176 0.124959 0.751876
813 1 0.366197 0.134348 0.75306
819 1 0.510832 0.131133 0.754123
821 1 0.636356 0.135219 0.749554
825 1 0.747008 0.126039 0.752322
829 1 0.881001 0.134479 0.748665
802 1 0.0596141 0.18883 0.75466
806 1 0.188762 0.184908 0.757763
810 1 0.305363 0.185895 0.750935
814 1 0.432018 0.182463 0.758694
818 1 0.566037 0.190907 0.756435
822 1 0.691699 0.19461 0.749237
826 1 0.816148 0.194248 0.744902
830 1 0.936829 0.206113 0.747237
833 1 0.00628289 0.252097 0.752919
837 1 0.124564 0.247461 0.754984
841 1 0.252193 0.247926 0.752754
845 1 0.365864 0.239431 0.750987
851 1 0.492593 0.240986 0.737771
853 1 0.626975 0.238624 0.740943
857 1 0.753684 0.258987 0.747438
861 1 0.881194 0.262979 0.750629
834 1 0.0654233 0.306989 0.760317
871 1 0.180991 0.318909 0.750227
716 1 0.30574 0.327406 0.746388
846 1 0.424015 0.313698 0.756452
850 1 0.568983 0.302415 0.75319
854 1 0.685276 0.309801 0.749934
858 1 0.811062 0.315028 0.752686
862 1 0.944234 0.322026 0.753572
865 1 0.0127779 0.36564 0.757938
869 1 0.118847 0.369956 0.747078
842 1 0.242395 0.38176 0.742443
877 1 0.373082 0.379688 0.754332
881 1 0.484143 0.384172 0.745697
885 1 0.62383 0.372999 0.740189
889 1 0.751804 0.374132 0.744945
893 1 0.874083 0.370527 0.748929
866 1 0.0571795 0.434697 0.747487
870 1 0.184422 0.440064 0.750623
874 1 0.307036 0.440397 0.748019
878 1 0.426061 0.439041 0.747359
882 1 0.544527 0.441824 0.753117
886 1 0.694065 0.428714 0.749398
890 1 0.819821 0.430693 0.754308
894 1 0.940454 0.436099 0.759428
1797 1 0.115237 0.494214 0.75278
1801 1 0.251871 0.499404 0.747356
1813 1 0.626474 0.488322 0.745905
1817 1 0.743437 0.498061 0.743049
1821 1 0.869498 0.493957 0.749719
1793 1 0.99546 0.499198 0.749998
771 1 0.0622522 0.00727385 0.819665
783 1 0.443397 1.16788e-05 0.815547
787 1 0.563435 0.00826533 0.831909
791 1 0.683243 0.00540231 0.820673
795 1 0.817247 0.0095079 0.807288
772 1 0.931679 3.6785e-05 0.824465
776 1 0.1224 0.0680141 0.815575
780 1 0.251694 0.062246 0.808746
784 1 0.368121 0.0559829 0.81506
788 1 0.496124 0.0661158 0.810498
792 1 0.622115 0.0624455 0.815601
796 1 0.74918 0.0615088 0.808049
800 1 0.872731 0.0674802 0.815333
898 1 0.988898 0.0605686 0.816779
803 1 0.0621417 0.133912 0.815204
807 1 0.181866 0.125059 0.818289
811 1 0.308365 0.120896 0.817551
815 1 0.441334 0.126697 0.822067
914 1 0.566378 0.132325 0.813622
823 1 0.687916 0.117705 0.817777
827 1 0.811028 0.127688 0.807347
831 1 0.941226 0.133333 0.806677
804 1 0.00313827 0.188459 0.81378
808 1 0.134438 0.187957 0.817359
812 1 0.253421 0.185302 0.811604
816 1 0.378614 0.179639 0.814597
820 1 0.495672 0.190201 0.817256
824 1 0.628302 0.18841 0.813683
828 1 0.750412 0.198993 0.807914
832 1 0.867905 0.186354 0.807069
835 1 0.067591 0.240583 0.820193
839 1 0.193454 0.255261 0.809741
843 1 0.307647 0.253179 0.809244
847 1 0.439713 0.244754 0.809625
946 1 0.562397 0.254085 0.815326
855 1 0.689262 0.253109 0.810106
859 1 0.814236 0.247585 0.801735
863 1 0.941033 0.250591 0.815065
836 1 0.000820734 0.310364 0.815561
840 1 0.127296 0.299057 0.820025
838 1 0.245165 0.322635 0.806937
848 1 0.373072 0.319089 0.812619
852 1 0.497717 0.3041 0.792689
856 1 0.622814 0.310257 0.815427
860 1 0.7429 0.317404 0.811596
864 1 0.876755 0.318143 0.809114
868 1 0.0697519 0.379457 0.818127
872 1 0.181883 0.377586 0.817838
844 1 0.306191 0.376633 0.813027
879 1 0.441443 0.367859 0.823436
883 1 0.548179 0.369365 0.808489
887 1 0.677069 0.372402 0.814541
891 1 0.81012 0.361174 0.818021
895 1 0.941246 0.368883 0.816592
867 1 0.127556 0.434618 0.806117
876 1 0.245099 0.44245 0.809651
880 1 0.373132 0.439512 0.809279
884 1 0.488597 0.440135 0.807145
888 1 0.608953 0.428418 0.801653
892 1 0.759722 0.432985 0.808248
896 1 0.878478 0.427947 0.811068
1823 1 0.999287 0.430199 0.821989
1795 1 0.0634353 0.496367 0.812323
1799 1 0.180623 0.49586 0.809907
1811 1 0.562038 0.495276 0.808436
905 1 0.247287 0.000195789 0.876959
913 1 0.49881 0.00329747 0.87788
918 1 0.633141 0.0137294 0.881389
925 1 0.872552 0.00627033 0.881135
900 1 0.0614688 0.0617863 0.882836
902 1 0.182071 0.0665166 0.874169
906 1 0.303121 0.066888 0.877999