ITEM: TIMESTEP
100000
ITEM: NUMBER OF ATOMS
2048
ITEM: BOX BOUNDS pp pp pp
0.0000000000000000e+00 1.3153131063095840e+01
0.0000000000000000e+00 1.3153131063095840e+01
0.0000000000000000e+00 1.3153131063095840e+01
ITEM: ATOMS id type xs ys zs
1639 1 0.15424 0.603532 0.448261
68 1 0.0752487 0.0234972 0.48843
1659 1 0.332454 0.214846 0.0473761
1995 1 0.177359 0.751204 0.0458435
1759 1 0.372302 0.360297 0.371254
1045 1 0.423491 0.118007 0.295445
1207 1 0.053185 0.495002 0.275057
1650 1 0.120079 0.59118 0.275785
551 1 0.495793 0.486289 0.0599483
1586 1 0.0633554 0.790625 0.390092
21 1 0.238316 0.172098 0.276654
1535 1 0.473973 0.101683 0.0675884
1339 1 0.0176526 0.0359744 0.432116
1561 1 0.023162 0.152201 0.354077
1583 1 0.0463357 0.196037 0.222565
986 1 0.015452 0.458554 0.376587
1087 1 0.402655 0.245243 0.054313
579 1 0.478194 0.247273 0.0591199
1918 1 0.369061 0.358873 0.136725
1429 1 0.0680643 0.323021 0.49194
221 1 0.242716 0.434408 0.0872978
1294 1 0.0583806 0.879276 0.240254
1646 1 0.0774438 0.299665 0.0819044
1505 1 0.256122 0.386663 0.427543
1293 1 0.395823 0.516949 0.100083
168 1 0.229969 0.654314 0.444423
1300 1 0.0816241 0.941734 0.288384
1118 1 0.21096 0.74395 0.467407
1931 1 0.297719 0.444997 0.00293915
1165 1 0.162169 0.0930821 0.285554
51 1 0.459049 0.998006 0.413378
585 1 0.137083 0.672519 0.306871
793 1 0.0729596 0.833383 0.448648
355 1 0.212518 0.0512756 0.0199109
1077 1 0.0674824 0.229193 0.0742364
271 1 0.218475 0.562487 0.265811
442 1 0.244803 0.721405 0.087659
1074 1 0.0140136 0.904467 0.143623
1348 1 0.393136 0.628027 0.135764
170 1 0.301912 0.796624 0.0701462
329 1 0.258638 0.887604 0.468954
1287 1 0.492881 0.65652 0.314959
909 1 0.397096 0.978627 0.0896686
1522 1 0.416711 0.48753 0.429895
446 1 0.494638 0.308615 0.396644
564 1 0.395978 0.439656 0.3748
1235 1 0.0600908 0.241734 0.485502
1023 1 0.44698 0.839047 0.240306
894 1 0.380076 0.802164 0.114624
501 1 0.299999 0.479804 0.236137
1344 1 0.174261 0.939741 0.188607
840 1 0.444117 0.703765 0.0529534
1807 1 0.473736 0.17624 0.00776834
1892 1 0.284931 0.875565 0.38171
726 1 0.361699 0.260188 0.186685
485 1 0.257125 0.839762 0.0212259
1768 1 0.147164 0.538937 0.401116
1635 1 0.391309 0.915283 0.0285507
727 1 0.294848 0.895824 0.152487
80 1 0.230075 0.118385 0.0973598
1390 1 0.0534941 0.761743 0.0585412
325 1 0.0402899 0.221259 0.304576
1189 1 0.436272 0.682678 0.228925
1223 1 0.0902018 0.644711 0.422426
1638 1 0.468993 0.970255 0.256212
696 1 0.257428 0.565748 0.0170423
1048 1 0.00933307 0.608606 0.218974
1067 1 0.133695 0.257722 0.105543
914 1 0.154149 0.69474 0.446614
307 1 0.124022 0.271209 0.0303105
2038 1 0.149515 0.935526 0.0907089
1430 1 0.34363 0.451743 0.0730021
514 1 0.31252 0.988558 0.0872714
904 1 0.171566 0.447442 0.0670411
172 1 0.293934 0.286695 0.14388
475 1 0.118438 0.747587 0.221076
934 1 0.417603 0.399451 0.310724
707 1 0.240265 0.955359 0.362147
1739 1 0.151029 0.99843 0.462522
1173 1 0.123088 0.630544 0.00992535
1055 1 0.352211 0.066141 0.210167
203 1 0.079273 0.903293 0.0223432
1529 1 0.35356 0.696794 0.456198
1678 1 0.443673 0.32118 0.190671
730 1 0.439371 0.207915 0.173646
940 1 0.164868 0.348008 0.444543
1015 1 0.0999463 0.150599 0.454954
549 1 0.182673 0.616721 0.0492007
59 1 0.445836 0.332553 0.495255
975 1 0.119829 0.717704 0.0779374
777 1 0.193655 0.303647 0.0457961
453 1 0.457513 0.866822 0.0193491
1502 1 0.180902 0.703054 0.208967
606 1 0.152973 0.942067 0.370358
936 1 0.367287 0.725454 0.118369
898 1 0.382145 0.664646 0.0709277
1666 1 0.324717 0.66634 0.392889
804 1 0.489454 0.392144 0.0948236
1220 1 0.286286 0.981106 0.0098701
575 1 0.220836 0.985082 0.0575497
1977 1 0.218306 0.785951 0.11244
287 1 0.0244077 0.653298 0.484882
337 1 0.278259 0.827479 0.137262
1347 1 0.407572 0.0551196 0.0491741
297 1 0.284079 0.949478 0.435236
79 1 0.407969 0.890841 0.112992
1515 1 0.243398 0.917312 0.21115
1514 1 0.470006 0.945239 0.46751
649 1 0.36112 0.0971384 0.00525122
148 1 0.206815 0.00595522 0.170045
93 1 0.488694 0.907589 0.122556
946 1 0.0366592 0.0286764 0.164797
1886 1 0.0637911 0.973097 0.0494573
388 1 0.450314 0.784288 0.429316
1800 1 0.304835 0.38434 0.086671
223 1 0.340659 0.113006 0.391268
1720 1 0.378964 0.127146 0.0761062
1033 1 0.147477 0.785158 0.458996
166 1 0.346635 0.189236 0.200388
1409 1 0.0979412 0.352392 0.0332093
981 1 0.481305 0.849336 0.0827266
1499 1 0.0677225 0.828546 0.13909
1026 1 0.437624 0.765931 0.247333
499 1 0.0361851 0.31296 0.0117249
860 1 0.167667 0.607711 0.221093
387 1 0.300592 0.517002 0.114937
157 1 0.492413 0.252475 0.144396
1797 1 0.0227008 0.392977 0.152435
466 1 0.355819 0.427325 0.223512
868 1 0.397004 0.697861 0.365519
1280 1 0.155974 0.546349 0.0890552
1088 1 0.154992 0.482495 0.145519
815 1 0.486021 0.468507 0.149072
1414 1 0.453416 0.617535 0.180253
693 1 0.334965 0.909174 0.0932842
1822 1 0.206876 0.650203 0.16778
1352 1 0.385649 0.570963 0.184393
1327 1 0.230602 0.485868 0.138886
1141 1 0.286657 0.11573 0.441853
925 1 0.157918 0.783427 0.172595
1852 1 0.177853 0.541025 0.192934
52 1 0.289424 0.755683 0.137237
590 1 0.302269 0.787306 0.438943
789 1 0.0401214 0.10194 0.488784
1528 1 0.083353 0.759024 0.149834
926 1 0.105164 0.0541275 0.185054
128 1 0.149289 0.813096 0.104793
1411 1 0.181036 0.683123 0.00765312
40 1 0.233575 0.317563 0.438413
367 1 0.00505496 0.090412 0.24322
1473 1 0.0757304 0.719268 0.435124
110 1 0.0555159 0.855333 0.312625
1268 1 0.0806954 0.908258 0.10102
722 1 0.0857691 0.308219 0.345199
1460 1 0.26413 0.923171 0.0724681
1736 1 0.219526 0.915931 0.136247
1034 1 0.250192 0.499502 0.0587908
1221 1 0.00979155 0.758789 0.13334
1288 1 0.414199 0.410477 0.449368
531 1 0.026418 0.964465 0.455607
331 1 0.193632 0.502381 0.47983
3 1 0.0819338 0.100954 -0.000540426
428 1 0.326496 0.293892 0.044177
81 1 0.18506 0.373449 0.06132
478 1 0.361197 0.00420809 0.154847
1378 1 0.0287365 0.767533 0.490515
1926 1 0.479901 0.429954 0.260532
1740 1 0.0790056 0.144956 0.0853892
742 1 0.158769 0.823018 0.0265145
703 1 0.204421 0.200516 0.115251
1526 1 0.210145 0.296165 0.118656
834 1 0.275742 0.674846 0.157711
176 1 0.447249 0.312288 0.338206
1898 1 0.20939 0.947348 0.43852
247 1 0.470645 0.0452654 0.49704
2002 1 0.306576 0.156671 0.107491
596 1 0.42049 0.530905 0.235284
1437 1 0.253355 0.243691 0.478693
1569 1 0.441218 0.182385 0.245609
75 1 0.145032 0.441001 0.248718
1617 1 0.0739893 0.368959 0.417985
1782 1 0.342087 0.370964 0.293586
1043 1 0.425541 0.260609 0.235333
1845 1 0.445371 0.675647 0.12533
979 1 0.0594598 0.557133 0.0750303
967 1 0.258235 0.411657 0.244184
270 1 0.0843063 0.65154 0.210118
1265 1 0.387007 0.824844 0.0331061
1520 1 0.189133 0.720069 0.137287
1795 1 0.248368 0.548149 0.171221
1552 1 0.320326 0.0565705 0.283942
1761 1 0.346187 0.457057 0.457057
686 1 0.427178 0.512801 0.164651
511 1 0.0969579 0.345455 0.14623
63 1 0.194986 0.658317 0.378138
303 1 0.403193 0.701592 0.292234
1947 1 0.332952 0.671107 0.209459
943 1 0.0442863 0.736147 0.213831
1869 1 0.385619 0.733895 0.189907
1358 1 0.244342 0.643507 0.0934843
424 1 0.488159 0.541957 0.136033
1012 1 0.498844 0.236053 0.223272
1993 1 0.427875 0.0996911 0.426429
1137 1 0.189353 0.849195 0.204845
383 1 0.248877 0.720725 0.288757
482 1 0.369181 0.744559 0.0405548
31 1 0.453695 0.781459 0.170832
1160 1 0.120805 0.0206367 0.344525
1523 1 0.280847 0.970367 0.184034
1021 1 0.496148 0.137046 0.283443
1099 1 0.43133 0.0759669 0.217112
1747 1 0.439137 0.134944 0.170838
1524 1 0.300156 0.184186 0.500097
690 1 0.0868025 0.47437 0.213007
1894 1 0.176591 0.851532 0.295476
1249 1 0.229143 0.00881713 0.247333
819 1 0.0452703 0.110012 0.165577
1458 1 0.366225 0.400846 0.0244272
450 1 0.133262 0.079783 0.0602152
406 1 0.0167152 0.731439 0.361351
1144 1 0.444623 0.586803 0.431919
1443 1 0.320973 0.604066 0.107651
1699 1 0.334643 0.221793 0.124324
962 1 0.278879 0.215252 0.184776
264 1 0.0820093 0.317267 0.214098
1891 1 0.189307 0.00972463 0.38686
163 1 0.288777 0.409968 0.16011
1519 1 0.467382 0.315379 0.112384
380 1 0.248503 0.761497 0.026051
918 1 0.124476 0.386836 0.0931656
1262 1 0.412297 0.230387 0.363395
348 1 0.456283 0.386476 0.163405
321 1 0.404455 0.5887 0.333331
1726 1 0.00540464 0.536316 0.0291148
955 1 0.482266 0.435563 0.345232
771 1 0.0568949 0.20385 0.00514374
682 1 0.206673 0.480749 0.286876
1819 1 0.0222716 0.526053 0.186322
1057 1 0.279605 0.525326 0.293812
554 1 0.141515 0.894715 0.23976
728 1 0.344832 0.381116 0.46394
713 1 0.34185 0.0719737 0.475352
1949 1 0.0278575 0.683049 0.0802322
758 1 0.346208 0.534551 0.265071
1585 1 0.493679 0.924523 0.35517
779 1 0.19263 0.388474 0.298933
735 1 0.229219 0.485589 0.216434
1500 1 0.387014 0.438212 0.130987
49 1 0.0838192 0.754784 0.319821
1609 1 0.312066 0.576172 0.18645
43 1 0.0722167 0.704523 0.27014
565 1 0.250843 0.652977 0.235253
1645 1 0.112921 0.636128 0.0858087
2042 1 0.347731 0.501619 0.168227
803 1 0.288329 0.838502 0.220217
623 1 0.104423 0.987605 0.118051
1364 1 0.202506 0.0473506 0.321905
1467 1 0.364781 0.934234 0.156942
990 1 0.137628 0.98426 0.0336695
1156 1 0.138515 0.0609265 0.409124
766 1 0.337743 0.903743 0.23173
341 1 0.398353 0.582929 0.0172793
4 1 0.156886 0.948877 0.295801
908 1 0.0433981 0.858865 0.387407
1232 1 0.132842 0.169306 0.0122999
1595 1 0.165962 0.187957 0.26879
647 1 0.178844 0.0264992 0.0955116
1400 1 0.144099 0.212807 0.200407
929 1 0.164217 0.318267 0.299996
39 1 0.0102518 0.670095 0.298152
706 1 0.461916 0.377165 0.406173
224 1 0.121475 0.367518 0.263381
744 1 0.419966 0.302333 0.427617
954 1 0.151862 0.14645 0.0855308
1696 1 0.256757 0.344156 0.172005
879 1 0.237359 0.280656 0.204112
776 1 0.170184 0.349616 0.144223
1875 1 0.32932 0.444804 0.294956
851 1 0.080825 0.522625 0.141077
1228 1 0.123783 0.450295 0.326351
1867 1 0.359484 0.646733 0.322333
572 1 0.290994 0.0495378 0.0445983
1295 1 0.472515 0.433098 0.500786
220 1 0.266007 0.507082 0.475797
366 1 0.355792 0.546392 0.397934
2007 1 0.20543 0.634313 0.295286
640 1 0.186215 0.486834 0.360889
469 1 0.0952118 0.818822 0.204921
1056 1 0.308702 0.195044 0.26239
291 1 0.145338 0.720669 0.375265
2019 1 0.316377 0.614607 0.26647
1132 1 0.302936 0.751376 0.214633
1441 1 0.0651498 0.67713 0.352993
938 1 0.241918 0.782477 0.193039
356 1 0.486532 0.468132 0.418502
1236 1 0.269874 0.0102533 0.319686
2009 1 0.137214 0.515717 0.269323
1113 1 0.358671 0.857501 0.178759
1798 1 0.181557 0.779284 0.244141
669 1 0.281392 0.868256 0.301527
1730 1 0.391887 0.61157 0.244813
541 1 0.373239 0.801008 0.226087
77 1 0.196413 0.860952 0.370754
50 1 0.389786 0.0707473 0.356401
2023 1 0.174647 0.0636764 0.210505
135 1 0.488699 0.18315 0.338714
1580 1 0.276213 0.063363 0.118172
704 1 0.0467589 0.618299 0.13976
826 1 0.33349 0.99582 0.243735
195 1 0.0985267 0.455697 0.0664194
1254 1 0.110009 0.295554 0.421064
1193 1 0.1377 0.989488 0.235514
505 1 0.393776 0.221722 0.451276
408 1 0.314238 0.193748 0.384308
1486 1 0.0470387 0.106894 0.300846
599 1 0.417993 0.0547756 0.129275
1865 1 0.0858814 0.268154 0.157185
671 1 0.371985 0.234113 0.297717
161 1 0.346276 0.298863 0.468732
1426 1 0.373784 0.33184 0.21659
1438 1 0.133341 0.40907 0.168848
2044 1 0.182326 0.166343 0.416707
1620 1 0.288363 0.258958 0.416656
193 1 0.0415434 0.331581 0.284137
944 1 0.280069 0.028557 0.454571
1079 1 0.211912 0.412121 0.166703
94 1 0.289018 0.141465 0.206772
976 1 0.197758 0.36581 0.223027
591 1 0.399179 0.47129 0.287188
222 1 0.254414 0.812824 0.350813
2010 1 0.0715713 0.571869 0.217776
191 1 0.126534 0.592929 0.148051
1888 1 0.466228 0.496717 0.310354
1627 1 0.164202 0.55231 0.327043
323 1 0.0981134 0.451685 0.398208
741 1 0.274829 0.360894 0.319411
1604 1 0.490201 0.831949 0.483909
1785 1 0.25693 0.352867 0.0400821
980 1 0.299993 0.332696 0.406638
1471 1 0.275986 0.469632 0.411985
486 1 -0.000697503 0.982077 0.00678277
1908 1 0.402233 0.280482 0.117938
731 1 0.266689 0.656784 0.325911
314 1 0.278914 0.588813 0.422585
118 1 0.330044 0.569293 0.33135
262 1 0.362427 0.131826 0.154902
1793 1 0.0132702 0.341414 0.212219
1893 1 0.32205 0.700959 0.285938
1996 1 0.373199 0.771381 0.298826
1612 1 0.393988 0.929775 0.266745
25 1 0.40889 0.995618 0.216687
1389 1 0.452632 0.177996 0.402686
1361 1 0.0431913 0.181574 0.425382
969 1 0.236092 0.0944017 0.272792
1184 1 0.0246201 0.624057 0.381638
1256 1 0.488355 0.0804041 0.1387
1613 1 0.148981 0.899275 0.430277
145 1 0.119203 0.219549 0.333071
1594 1 0.157396 0.285901 0.198432
1182 1 0.468192 0.553361 0.0411899
1049 1 0.224319 0.0843949 0.399684
555 1 0.0911999 0.543428 0.34021
403 1 0.212112 0.120913 0.187113
87 1 0.441854 0.154654 0.470012
460 1 0.322113 0.892135 0.0228909
438 1 0.317687 0.274255 0.24457
384 1 0.0466208 0.934466 0.354279
229 1 0.019248 0.341849 0.102052
1992 1 0.204313 0.249365 0.286611
1873 1 0.142289 0.348302 0.370769
1497 1 0.0489206 0.895396 0.4826
1501 1 0.355263 0.154812 0.45394
842 1 0.217944 0.208485 0.356892
1651 1 0.418507 0.366197 0.0865647
1396 1 0.0359161 0.307635 0.404279
273 1 0.389709 0.316881 0.290532
201 1 0.462694 0.52939 0.389001
1857 1 0.486779 0.613492 0.104867
991 1 0.270011 0.242898 0.0917678
1714 1 0.320733 0.299377 0.315719
251 1 0.037949 0.59955 0.29021
714 1 0.034285 0.509682 0.441043
792 1 0.333617 0.497448 0.346263
368 1 0.0201452 0.52464 0.338486
435 1 0.399738 0.158405 -0.000452979
1512 1 0.330636 0.74163 0.380356
945 1 0.225868 0.582554 0.470644
1434 1 0.475344 0.325663 0.0336646
1864 1 0.0216282 0.36292 0.353382
370 1 0.164016 0.550421 0.014752
643 1 0.352818 0.854648 0.414234
267 1 0.235369 0.578555 0.349548
1553 1 0.0653906 0.398022 0.232916
1433 1 0.377928 0.783707 0.42361
1162 1 0.3557 0.840626 0.287462
308 1 0.358876 0.999825 0.0154574
1459 1 0.0876715 0.827939 0.0528313
982 1 0.27263 0.0521762 0.196427
1126 1 0.221835 0.575346 0.101351
395 1 0.406356 0.860347 0.34186
869 1 0.417187 0.961389 0.35486
32 1 0.184013 0.734908 0.307842
1210 1 0.333507 0.818223 0.355091
1019 1 0.345009 0.0680791 0.100828
645 1 0.0989927 0.149845 0.246003
108 1 0.227889 0.912942 0.299796
1101 1 0.456805 0.96834 0.161366
2008 1 0.21876 0.133326 0.018351
570 1 0.0617254 0.0895021 0.410468
604 1 0.470739 0.699675 0.386844
613 1 0.328373 0.131408 0.292596
183 1 0.424037 0.699221 0.451758
48 1 0.0107849 0.839541 0.183856
1716 1 0.454647 0.751115 0.324192
1590 1 0.44674 0.344367 0.258353
1387 1 0.498631 0.742411 0.487726
11 1 0.256178 0.183651 0.428736
1889 1 0.141177 0.877489 0.147629
1626 1 0.286605 0.238992 0.335055
1556 1 0.241543 0.316191 0.271779
1973 1 0.23598 0.302915 0.348943
385 1 0.394122 0.326933 0.0270155
502 1 0.265613 0.183308 0.0390514
82 1 0.356649 0.272087 0.386171
1312 1 0.273481 0.124595 0.341467
1112 1 0.095669 0.269773 0.28044
1622 1 0.18658 0.4524 0.430915
1566 1 0.297296 0.345998 0.233591
1069 1 0.0718658 0.447415 0.137357
293 1 0.0762838 0.393862 0.31657
1367 1 0.427868 0.454899 0.0700686
1511 1 0.0653487 0.0467377 0.254987
1476 1 0.313527 0.406355 0.372506
893 1 0.402436 0.0104034 0.462151
132 1 0.366972 0.011563 0.319382
903 1 0.196224 0.912118 0.0396305
1183 1 0.125791 0.838016 0.394379
509 1 0.029283 0.0719928 0.0638917
354 1 0.48768 0.529126 0.206178
956 1 0.00763644 0.447131 0.24129
1912 1 0.00376392 0.255307 0.245044
1331 1 0.133664 0.615205 0.373395
1719 1 0.476101 0.0955389 0.353856
841 1 0.0794686 0.922557 0.420101
133 1 0.109812 0.826569 0.27283
301 1 0.078123 0.566057 0.446961
211 1 0.221867 0.435504 0.0125215
456 1 0.290775 0.78103 0.298572
681 1 0.434757 0.0377035 0.307477
1656 1 0.313716 0.70078 0.0727221
1878 1 0.261563 0.736899 0.367214
386 1 0.0881682 0.680522 0.140192
877 1 0.0751935 0.18941 0.150204
1737 1 0.20337 0.775565 0.390998
785 1 0.240029 0.826979 0.433506
835 1 0.0731153 0.995275 0.402502
1051 1 0.438188 0.859674 0.4334
553 1 0.378767 0.93289 0.445586
1150 1 0.300211 0.624346 0.0383191
1215 1 0.298086 0.941791 0.309566
781 1 0.335306 0.545891 0.0419116
1016 1 0.350178 0.91015 0.365854
249 1 0.0327782 0.797377 0.275783
1544 1 0.00598117 0.173971 0.167318
109 1 0.378791 0.130839 0.234979
245 1 0.114401 0.145278 0.374131
349 1 0.190379 0.249443 0.440338
360 1 0.120372 0.889093 0.327254
483 1 0.271213 0.683695 0.00754213
1581 1 0.168222 0.0893378 0.134027
1093 1 0.0487871 0.445282 0.475895
495 1 0.00255853 0.15979 0.273224
989 1 0.114012 0.493555 0.452574
346 1 0.118514 0.22555 0.44371
1032 1 0.395515 0.156723 0.357287
2014 1 0.0808567 0.0645213 0.114997
1058 1 0.430049 0.888726 0.189859
1824 1 0.0194312 0.982993 0.110301
1763 1 0.482944 0.857191 0.303616
1882 1 0.320206 0.00767515 0.397945
670 1 0.188018 0.0694249 0.473384
992 1 0.496971 0.0256636 0.356266
1163 1 0.128926 0.129488 0.17822
275 1 0.432722 0.459463 0.212031
1989 1 0.461173 0.782262 0.0407537
1957 1 0.321949 0.629452 0.466446
74 1 0.168536 0.273834 0.36876
791 1 0.0988915 0.928347 0.189374
178 1 0.456492 0.239866 0.30342
527 1 0.236802 0.429691 0.363101
697 1 0.433232 0.177694 0.0791484
1516 1 0.180113 0.213344 0.0504598
84 1 0.279368 0.711362 0.450515
1661 1 0.1803 0.137891 0.3368
484 1 0.355445 0.543062 0.469994
1784 1 0.478666 0.584639 0.337769
1692 1 0.0302625 0.99821 0.287596
905 1 0.452097 0.938612 0.0588312
1738 1 0.0148799 0.14541 0.039485
1940 1 0.474344 0.0146933 0.0893373
1938 1 0.498919 0.67226 0.449662
838 1 0.0423656 0.402511 0.0720354
1136 1 0.418419 0.791206 0.497678
240 1 0.218109 0.858183 0.0878793
1673 1 0.0214182 0.623589 0.0354344
1324 1 0.0326405 0.975416 0.215553
528 1 0.452778 0.630367 0.0422774
524 1 0.389294 0.633374 0.418432
1704 1 0.390378 0.858711 0.499197
503 1 0.0449217 0.0439277 0.349637
407 1 0.497757 0.0597715 0.280792
1133 1 0.01101 0.67659 0.180032
113 1 0.132607 0.876726 0.499085
416 1 0.11892 0.426629 0.493533
1603 1 0.104194 0.630603 0.497384
1756 1 0.125327 0.458936 -0.00072324
581 1 0.425382 0.932148 0.624421
960 1 0.439762 0.758975 0.61712
1943 1 0.412218 0.492878 0.689078
1368 1 0.467877 0.800382 0.552045
517 1 0.113098 0.700044 0.640142
1507 1 0.283768 0.240757 0.628536
828 1 0.0796171 0.263213 0.555968
574 1 0.222786 0.153875 0.819234
1275 1 0.0912195 0.837876 0.596085
993 1 0.18642 0.0852897 0.565379
1802 1 -0.000693748 0.911372 0.685282
1856 1 0.157662 0.552837 0.786855
845 1 0.392099 0.427784 0.831295
470 1 0.281172 0.31206 0.933255
455 1 0.419566 0.0719846 0.690723
624 1 0.462163 0.568264 0.553368
412 1 0.475759 0.398755 0.802576
1243 1 0.134796 0.606358 0.934656
444 1 0.0120224 0.382807 0.985711
1395 1 0.316536 0.184908 0.578088
708 1 0.0143957 0.317797 0.564854
18 1 0.0277778 0.317449 0.69068
1559 1 0.0616439 0.370058 0.6086
875 1 0.286283 0.29087 0.535016
1208 1 0.279439 0.715973 0.578039
1145 1 0.018791 0.521674 0.802706
16 1 0.464559 0.117568 0.769339
685 1 0.346105 0.238867 0.504347
389 1 0.0673122 0.146119 0.85029
1372 1 0.120692 0.506661 0.652506
1377 1 0.302104 0.378849 0.901549
144 1 0.254533 0.408433 0.952599
402 1 0.454001 0.749754 0.692348
1965 1 0.381338 0.128744 0.58498
542 1 0.312592 0.696863 0.659534
1 1 0.430728 0.619207 0.912401
333 1 0.485238 0.649615 0.740285
618 1 0.222454 0.341101 0.87949
372 1 0.303347 0.491177 0.556921
1070 1 0.103048 0.709791 0.506439
315 1 0.122398 0.94246 0.725823
398 1 0.30154 0.458614 0.906428
1624 1 0.468801 0.0351554 0.730347
1218 1 0.127387 0.447896 0.834052
650 1 0.10339 0.80965 0.517745
849 1 0.439287 0.675154 0.673083
2026 1 0.487691 0.531043 0.950865
65 1 0.210296 0.320244 0.534077
35 1 0.269375 0.0942948 0.522967
916 1 0.147768 0.0218174 0.685693
508 1 0.201433 0.16427 0.650356
1573 1 0.196546 0.0270769 0.757561
429 1 0.337273 0.0851236 0.549897
1279 1 0.0719191 0.220852 0.761253
1731 1 0.183645 0.397199 0.503798
1379 1 0.456675 0.936007 0.937987
358 1 0.108272 0.508799 0.727496
107 1 0.101849 0.083046 0.579077
1629 1 0.425539 0.505825 0.995775
822 1 0.06925 0.621736 0.622956
823 1 0.2599 0.220083 0.550338
327 1 0.0488212 0.584485 0.544803
607 1 0.0241382 0.721759 0.651513
1881 1 0.0165066 0.41451 0.644323
912 1 0.484564 0.308857 0.557617
1774 1 0.316747 0.35085 0.992828
786 1 0.258823 0.630745 0.738125
1732 1 0.333157 0.42129 0.689436
1787 1 0.430212 0.387969 0.580384
927 1 0.27445 0.763235 0.808906
578 1 0.0986149 0.36472 0.667354
1447 1 0.196819 0.452095 0.70715
1263 1 0.0523149 0.651267 0.740173
1383 1 0.0567585 0.0251139 0.981708
164 1 0.201718 0.527335 0.651495
1663 1 0.472604 0.273467 0.652242
951 1 0.386073 0.70312 0.61381
23 1 0.356974 0.578563 0.751504
1425 1 -0.00117062 0.169929 0.798502
1539 1 0.230732 0.0257025 0.687861
1422 1 0.124825 0.578795 0.65105
664 1 0.27776 0.620265 0.650588
174 1 0.00902912 0.971949 0.532871
1250 1 0.42223 0.249096 0.908746
473 1 0.167966 0.833411 0.821573
1061 1 0.129859 0.66822 0.559234
1575 1 0.438374 0.00214887 0.993008
136 1 0.0468472 0.866334 0.915852
208 1 0.365656 0.784865 0.621946
319 1 0.173092 0.962464 0.583645
1000 1 0.190787 0.629659 0.530286
1328 1 0.107477 0.231697 0.853088
921 1 0.485829 0.889406 0.614439
1166 1 0.334318 0.788783 0.745453
1911 1 0.165654 0.857337 0.741955
1122 1 0.0456336 0.967941 0.714596
745 1 0.260028 0.752972 0.640967
1851 1 0.436052 0.381102 0.995419
1832 1 0.0605604 0.19539 0.572371
257 1 0.288531 0.885432 0.641727
1105 1 0.373707 0.0567846 0.634102
1592 1 0.198309 0.971498 0.649875
900 1 0.211994 0.0976816 0.888369
1311 1 0.491259 0.145872 0.883831
99 1 0.0888299 0.397825 0.977575
582 1 0.258832 0.908601 0.853927
134 1 0.310071 0.00695001 0.729483
1385 1 0.0828443 0.294844 0.745096
949 1 0.400486 0.64021 0.580192
1305 1 0.112293 0.875609 0.787219
1504 1 0.407105 0.214967 0.701005
1728 1 0.147985 0.310608 0.578957
1291 1 0.282654 0.366793 0.680885
1632 1 0.0410535 0.433106 0.848728
1826 1 0.0339638 0.11923 0.563515
1117 1 0.0091443 0.494963 0.873011
1380 1 0.383843 0.0648974 0.782487
1652 1 0.127141 0.230824 0.623628
28 1 0.175453 0.957289 0.91271
738 1 0.322032 0.302734 0.65525
843 1 0.407946 0.428317 0.64625
1242 1 0.220176 0.587582 0.694615
1398 1 0.151147 0.23643 0.779998
1508 1 0.461276 0.520983 0.641789
1257 1 0.169994 0.566718 0.582317
1415 1 0.397307 0.661026 0.736302
1970 1 0.271741 0.476041 0.694191
1735 1 0.319629 0.650091 0.597523
915 1 0.145647 0.0699194 0.98209
1397 1 0.0408376 0.630206 0.813487
1961 1 0.388837 0.79147 0.964579
462 1 0.315845 0.47788 0.762231
1018 1 0.0258182 0.443549 0.769378
391 1 0.161352 0.826846 0.57609
870 1 0.227994 0.699987 0.749096
749 1 0.161176 0.752728 0.524757
902 1 0.45361 0.609078 0.62544
1405 1 0.292697 0.428426 0.603101
784 1 0.477621 0.757906 0.873673
282 1 0.0147979 0.321918 0.760887
1310 1 0.374896 0.762341 0.551437
1124 1 0.0664758 0.701372 0.799227
1186 1 0.286393 0.958733 0.635299
1404 1 0.292884 0.792049 0.587966
593 1 0.345866 0.841948 0.571109
637 1 0.232318 0.0252727 0.520447
1159 1 0.232603 0.545575 0.533199
152 1 0.471417 0.898271 0.69352
1683 1 0.0665902 0.442691 0.91896
294 1 0.109914 0.0110561 0.750085
1631 1 0.354776 0.380187 0.622914
985 1 0.297204 0.934009 0.740596
996 1 0.20757 0.197011 0.915572
886 1 0.168574 0.171986 0.578408
1412 1 0.166173 0.0646598 0.838243
1103 1 0.159465 0.383395 0.855485
1121 1 0.290781 0.163572 0.643808
1401 1 0.160849 0.0290168 0.53264
1711 1 0.420189 0.225253 0.61066
1509 1 0.416222 0.648453 0.983132
1028 1 0.185593 0.258704 0.722754
1742 1 0.492423 0.467303 0.991227
1879 1 0.136567 0.195432 0.697177
513 1 0.392221 0.318289 0.604768
1201 1 0.0943695 0.363356 0.784427
1325 1 0.191913 0.409446 0.781903
794 1 0.0188713 0.628238 0.674523
1338 1 0.445982 0.699293 0.910523
913 1 0.417544 0.997645 0.590955
1999 1 0.2581 0.654604 0.809689
1750 1 0.317415 -0.000217815 0.866529
1896 1 0.0764762 0.247132 0.690461
1090 1 0.321719 0.178747 0.720956
290 1 0.448697 0.341574 0.896903
1092 1 0.126037 0.294667 0.666647
182 1 0.0961694 0.445206 0.612021
1432 1 0.26317 0.409256 0.740732
1308 1 0.0181344 0.729776 0.861589
9 1 0.294377 0.568713 0.706342
641 1 0.26022 0.668167 0.507225
1843 1 0.220859 0.510564 0.746519
2032 1 0.209262 0.634407 0.895711
452 1 0.0855616 0.733264 0.579187
800 1 0.422012 0.719113 0.845694
1680 1 0.1952 0.700745 0.577493
1910 1 0.288733 0.819801 0.675745
710 1 0.183148 0.732836 0.69607
970 1 0.382443 0.740011 0.785202
563 1 0.367694 0.973836 0.810004
238 1 0.178734 0.763409 0.627458
1841 1 0.244718 0.100314 0.666641
1689 1 0.498097 0.320028 0.82331
459 1 0.220082 0.85187 0.692087
1452 1 0.251731 0.0651837 0.60193
1542 1 0.38387 0.0197432 0.728863
1681 1 0.393782 0.0971819 0.917937
1906 1 0.359836 0.921334 0.589447
1536 1 0.398857 0.383594 0.515149
1868 1 0.268668 0.988526 0.815661
917 1 0.25665 0.133802 0.589593
1753 1 0.374168 0.0208832 0.533139
1744 1 0.313858 0.147669 0.825275
248 1 0.127024 0.501374 0.556132
1596 1 0.0196788 0.174931 0.514395
1743 1 0.176804 0.0327781 0.909167
196 1 0.0151071 0.584904 0.97575
652 1 0.151684 0.311715 0.77266
539 1 0.249457 0.0292941 0.877695
655 1 0.343923 0.265093 0.58956
797 1 0.308201 0.0882366 0.878235
1510 1 0.474237 0.189259 0.821438
1729 1 0.17972 0.0730617 0.640225
1835 1 0.194953 0.99462 0.840056
1146 1 0.157024 0.328952 0.920478
2011 1 0.389155 0.124195 0.74389
1472 1 0.48262 0.408946 0.941212
1384 1 0.483841 0.977298 0.631039
2036 1 0.448134 0.357111 0.664587
683 1 0.0549683 0.471651 0.688687
756 1 0.105202 0.441238 0.765687
1448 1 0.261734 0.368216 0.502971
1143 1 0.317504 0.44708 0.82736
547 1 0.441686 0.985423 0.523267
1860 1 0.481237 0.662595 0.827497
1346 1 0.294968 0.352036 0.774939
657 1 0.248236 0.490414 0.60757
1900 1 0.283821 0.220974 0.974603
1966 1 0.0714636 0.543495 0.610872
138 1 0.0673487 0.576329 0.852454
723 1 0.450294 0.520163 0.744654
312 1 0.27927 0.532743 0.948876
2015 1 0.352025 0.344927 0.731266
765 1 0.0184234 0.729412 0.556505
1175 1 0.0988068 0.504939 0.80225
1796 1 0.4204 0.334223 0.826988
1353 1 0.21021 0.759496 0.949611
255 1 0.340157 0.630083 0.692028
605 1 0.108482 0.000581734 0.61307
1072 1 0.122203 0.642166 0.696949
1483 1 0.286159 0.291514 0.852485
1272 1 0.285965 0.692201 0.869883
1335 1 0.313657 0.595906 0.53433
507 1 0.189545 0.21668 0.512451
1883 1 0.28298 0.903447 0.559088
1815 1 0.356109 0.9264 0.868868
2021 1 0.350718 0.880611 0.736127
958 1 0.388452 0.949676 0.739034
250 1 0.160025 0.901033 0.680871
864 1 0.428843 0.946368 0.865251
83 1 0.0578934 0.803961 0.652586
1929 1 0.324392 0.0211187 0.586333
1546 1 0.0087302 0.246125 0.541475
159 1 0.175295 0.823653 0.927239
953 1 0.30672 0.0321904 0.661387
2028 1 0.316554 0.0458633 0.814391
1219 1 0.142129 0.133432 0.890606
2001 1 0.016291 0.759342 0.773553
561 1 0.349638 0.489674 0.656815
1095 1 0.228291 0.948387 0.742143
948 1 0.327733 0.0902687 0.706058
12 1 0.407769 0.524032 0.804747
1097 1 0.0193625 0.808066 0.999219
1839 1 0.177983 0.170965 0.755796
62 1 0.455606 0.203711 0.750953
60 1 0.431377 0.0675503 0.574924
1253 1 0.0489055 0.103365 0.638649
1427 1 0.34751 0.211934 0.660459
2046 1 0.346231 0.305633 0.801594
774 1 0.469679 0.127796 0.689273
415 1 0.205654 0.204257 0.987269
644 1 0.392108 0.572899 0.673993
1094 1 0.447384 0.268587 0.80361
1451 1 0.137807 0.711607 0.926358
1942 1 0.403 0.98928 0.92464
1453 1 0.22756 0.330437 0.715423
151 1 0.317087 0.16018 0.988998
510 1 0.170859 0.621765 0.759312
1091 1 0.056365 0.56402 0.6791
748 1 0.244384 0.213719 0.69607
189 1 0.202952 0.591394 0.832488
474 1 0.286409 0.283393 0.715758
573 1 0.493032 0.995421 0.886394
1238 1 0.155445 0.768562 0.758096
677 1 0.190058 0.53847 0.887579
957 1 0.0378016 0.362888 0.834577
437 1 0.033692 0.653858 0.564189
636 1 0.225985 0.789722 0.731448
1172 1 0.447402 0.70982 0.775117
600 1 0.144447 0.931256 0.975037
1011 1 0.236664 0.678444 0.678154
1706 1 0.272753 0.838572 0.823836
923 1 0.227174 0.886472 0.78821
241 1 0.233947 0.786285 0.545567
8 1 0.136872 0.697546 0.745346
103 1 0.336879 0.856501 0.961344
477 1 0.282523 0.851156 0.749299
1252 1 0.313118 0.601526 0.81883
598 1 0.226557 0.907239 0.611494
1818 1 0.426829 0.787272 0.826728
1259 1 0.424224 0.902419 0.795679
464 1 0.427954 0.891524 0.560141
1840 1 0.0554989 0.0322527 0.558468
1643 1 0.379304 0.0541743 0.860412
120 1 0.398096 0.858442 0.880282
1751 1 0.319691 0.894947 0.807313
1481 1 0.311948 0.923131 0.932161
1468 1 0.033919 0.918336 0.868741
1922 1 0.473322 0.0829045 0.849228
1985 1 0.367467 0.141941 0.671174
1550 1 0.397885 0.144035 0.825607
1574 1 0.381784 0.190332 0.76535
619 1 0.0105954 0.0347209 0.719049
1554 1 0.417024 0.180887 0.926491
1155 1 0.0710143 0.518782 0.508738
188 1 0.155524 0.114826 0.69922
932 1 0.298968 0.224208 0.810935
1047 1 0.24102 0.214665 0.769957
334 1 0.411447 0.84477 0.61279
1478 1 0.142667 0.378422 0.727684
997 1 0.267347 0.0768559 0.77096
2045 1 0.00319501 0.51868 0.718779
454 1 0.0902547 0.148184 0.738145
139 1 0.177128 0.357972 0.666599
1008 1 0.391901 0.179568 0.531162
443 1 0.0606158 0.908705 0.591753
1766 1 0.402308 0.850662 0.68723
1399 1 0.18609 0.495682 0.823624
538 1 0.389329 0.577668 0.860723
1480 1 0.124721 0.43905 0.684129
1413 1 0.110943 0.686367 0.855547
1905 1 0.364929 0.484935 0.877549
1664 1 0.363695 0.646182 0.929689
1350 1 0.24344 0.456688 0.80495
1455 1 0.274134 0.595409 0.894702
1709 1 0.353393 0.499089 0.967464
790 1 0.182934 0.633233 0.62888
1687 1 0.205333 0.713167 0.878802
19 1 0.262481 0.55317 0.794609
646 1 0.221506 0.298082 0.974129
1589 1 0.196525 0.76618 0.818248
746 1 0.440225 0.597223 0.774525
34 1 0.299463 0.768558 0.897078
69 1 0.359329 0.650659 0.853697
767 1 0.234012 0.832088 0.601056
1322 1 0.228015 0.800314 0.880358
1444 1 0.0751861 0.690993 0.997404
897 1 0.0786448 0.846032 0.849413
1439 1 0.248772 0.954651 0.920373
1611 1 0.461381 0.961429 0.72834
520 1 0.38288 0.841608 0.80165
1987 1 0.345056 0.946826 0.679611
1811 1 0.166292 0.095501 0.773918
695 1 0.132585 0.826086 0.655346
1158 1 0.168234 0.94473 0.782993
432 1 0.104778 0.935291 0.648211
209 1 0.038015 0.246092 0.831086
1392 1 0.466648 0.0138236 0.810378
90 1 0.204992 0.991168 0.976137
449 1 0.114148 0.00374117 0.864977
762 1 0.122265 0.17077 0.518977
1927 1 0.0522891 0.0724779 0.912272
233 1 0.0408316 0.989889 0.904522
1968 1 0.287891 0.225129 0.882738
1474 1 0.26552 0.142319 0.911959
353 1 0.174803 0.135305 0.958077
1593 1 0.203529 0.875282 0.973993
1231 1 0.363697 0.259337 0.748288
431 1 0.205641 0.527317 0.958712
506 1 0.251284 0.139795 0.732578