ITEM: TIMESTEP
100000
ITEM: NUMBER OF ATOMS
2048
ITEM: BOX BOUNDS pp pp pp
0.0000000000000000e+00 1.2699208415745595e+01
0.0000000000000000e+00 1.2699208415745595e+01
0.0000000000000000e+00 1.2699208415745595e+01
ITEM: ATOMS id type xs ys zs
568 1 0.180152 0.0440926 0.145602
125 1 0.527791 0.126893 0.2452
1960 1 0.276338 0.442204 0.441969
1361 1 0.191513 0.31718 0.360856
1005 1 0.939869 0.402893 0.430236
745 1 0.76753 0.185881 0.313001
1713 1 0.972178 0.213778 0.143465
1056 1 0.957139 0.350805 0.175531
206 1 0.421557 0.484307 0.477316
558 1 0.523997 0.310239 0.439303
1784 1 0.0101045 0.452113 0.233167
339 1 0.208099 0.115866 0.195444
1435 1 0.46964 0.210104 0.371132
757 1 0.936746 0.0875434 0.0650182
2005 1 0.305711 0.111281 0.245553
1535 1 0.234046 0.0449506 0.0019155
161 1 0.143637 0.204286 0.239252
360 1 0.565436 0.270605 0.0138499
2023 1 0.951185 0.053813 0.38947
1962 1 0.818694 0.226207 0.498693
1763 1 0.612962 0.276914 0.0888637
1851 1 0.155957 0.39177 0.0924206
894 1 0.669854 0.198748 0.261868
326 1 0.124103 0.231897 0.44445
1628 1 0.0136346 0.143806 0.198744
718 1 0.833886 0.449852 0.352157
1651 1 0.553119 0.468798 0.322899
1062 1 0.420388 0.0617569 0.343368
1522 1 0.520817 0.215634 0.0777544
855 1 0.880841 0.479566 0.227589
498 1 0.985223 0.137956 0.438852
1287 1 0.0397714 0.075531 0.176193
1292 1 0.251877 0.105807 0.426481
1828 1 0.760654 0.427105 0.213559
354 1 0.281842 0.0238068 0.255026
826 1 0.587732 0.143786 0.10369
369 1 0.729722 0.22604 0.103618
772 1 0.97811 0.0819304 0.253665
401 1 0.0916364 0.37202 0.496181
1412 1 0.325285 0.174676 0.0839952
495 1 0.0820477 0.436004 0.122123
2019 1 0.112649 0.139611 0.0429558
604 1 0.707182 0.491759 0.0850641
95 1 0.529452 0.120358 0.0497611
348 1 0.557403 0.400956 0.355932
338 1 0.97586 0.400502 0.00835147
1458 1 0.62596 0.353341 0.102271
606 1 0.821427 0.266122 0.0955247
1534 1 0.809165 0.41247 0.0916222
1001 1 0.160926 0.314284 0.249377
1429 1 0.60912 0.476241 0.0918227
1674 1 0.371234 0.0863401 0.401573
785 1 0.625892 0.380236 0.22968
786 1 0.131058 0.102022 0.139193
635 1 0.972606 0.00789888 0.449014
1644 1 0.715964 0.479548 0.19365
678 1 0.151261 0.173224 0.1699
4 1 0.0672812 0.150037 0.101519
1044 1 0.280637 0.0745435 0.0544347
1533 1 0.787279 0.1996 0.0591192
305 1 0.363351 0.422136 0.0616278
802 1 0.300599 0.0766326 0.379584
947 1 0.366826 0.429859 0.499994
1291 1 0.741449 0.35321 0.336635
347 1 0.25662 0.0761357 0.303414
960 1 0.477081 0.0659909 0.0216835
298 1 0.513587 0.120372 0.153368
1633 1 0.826312 0.447807 0.179327
460 1 0.808631 0.0848043 0.169486
386 1 0.720505 0.0553686 0.229153
1688 1 0.0694638 0.214826 0.146019
1712 1 0.552599 0.436039 0.484514
1086 1 0.12367 0.0177003 0.2601
1936 1 0.392952 0.035942 0.496516
1613 1 0.494663 0.382826 0.445508
1822 1 0.642881 0.136159 0.179864
1461 1 0.565548 0.413898 0.0905621
1512 1 0.0682375 0.485175 0.382361
75 1 0.0665751 0.305113 0.037334
1070 1 0.226475 0.146918 0.282157
673 1 0.00844882 0.496062 0.320054
586 1 0.732176 0.0996198 0.162997
877 1 0.00297397 0.19541 0.07948
889 1 0.253735 0.193872 0.079063
1486 1 0.213556 0.263159 0.103267
413 1 0.663874 0.436207 0.0517024
980 1 0.692253 0.152233 0.120324
1051 1 0.729637 0.149266 0.0491182
1807 1 0.712297 0.0119169 0.161554
2017 1 0.96664 0.274275 0.0917856
857 1 0.990979 0.140942 0.026991
358 1 0.527695 0.26069 0.208202
283 1 0.706288 0.216083 0.176265
1282 1 0.877449 0.0833934 0.121344
1012 1 0.337358 0.440987 0.361377
1532 1 0.0474764 0.401121 0.182381
144 1 0.367824 0.238982 0.0878914
1874 1 0.444502 0.44171 0.15901
325 1 0.51656 0.016558 0.254147
1753 1 0.962147 0.434932 0.289857
1128 1 0.5675 0.330781 0.232435
887 1 0.803549 0.275664 0.0125562
1103 1 0.359298 0.46696 0.429995
12 1 0.018484 0.220235 0.00516935
417 1 0.435808 0.0538418 0.42343
1816 1 0.408204 0.455053 0.00450872
396 1 0.123777 0.46508 0.0589448
522 1 0.279615 0.153444 0.0244831
1208 1 0.8441 0.295817 0.158486
1272 1 0.925762 0.450288 0.368026
1079 1 0.768927 0.0124987 0.293042
1137 1 0.506213 0.00115627 0.0433108
426 1 0.624611 0.00619506 0.120331
872 1 0.696283 0.361952 0.0757987
1729 1 0.500842 0.0633149 0.318768
1928 1 0.427054 0.241993 0.0417625
974 1 0.818819 0.372375 0.221321
388 1 0.468266 0.435918 0.394179
647 1 0.618176 0.379956 0.494364
1876 1 0.748509 0.0226875 0.0934147
569 1 0.0696817 0.0505097 0.103774
1228 1 0.0324541 0.0738618 0.0346203
472 1 0.661606 0.0951218 0.479891
1236 1 0.575915 0.0686211 0.128666
799 1 0.937566 0.110294 0.186142
1330 1 0.878377 0.0316352 0.183586
1854 1 0.183807 0.24985 0.28526
289 1 0.124378 0.274194 0.101816
1635 1 0.354206 0.0419623 0.228461
898 1 0.422977 0.0364938 0.129861
1742 1 0.561338 0.170875 0.193054
1707 1 0.773747 0.105503 0.097536
333 1 0.249438 0.299043 0.0268599
1156 1 0.620704 0.329805 0.431281
1353 1 0.241242 0.104049 0.126822
1992 1 0.145209 0.475468 0.400488
1873 1 0.601031 0.231402 0.21651
89 1 0.84185 0.157268 0.119058
147 1 0.992424 0.333727 0.0521858
1495 1 0.0631165 0.211039 0.221057
972 1 0.383263 0.178248 0.0286621
1882 1 0.945857 0.215638 0.0303035
249 1 0.402168 0.169041 0.108893
1946 1 0.105785 0.0153734 0.17255
1244 1 -0.00166469 0.106718 0.118852
869 1 0.588805 0.407141 0.169456
98 1 0.0875632 0.346431 0.100916
1521 1 0.0551772 0.420575 0.0447607
1456 1 0.282138 0.248734 0.129019
526 1 0.379102 0.103695 0.0538711
1620 1 0.612661 0.132012 0.251538
1657 1 0.929216 0.166116 0.0964861
1741 1 0.302018 0.0180279 0.436882
486 1 0.101835 0.268021 0.26869
921 1 0.861726 0.0494039 0.423832
937 1 0.447891 0.113919 0.0941597
554 1 0.842051 0.378101 0.414554
1362 1 0.639976 0.208125 0.135843
150 1 0.785362 0.306049 0.246807
1299 1 0.011996 0.0689438 0.338195
1624 1 0.751959 0.208613 0.460104
1595 1 0.499257 0.279635 0.360411
135 1 0.289688 0.426194 0.0402383
570 1 0.472924 0.470014 0.231544
717 1 0.629838 0.344134 0.0218583
1861 1 0.616975 0.295129 0.169124
512 1 0.751604 0.386699 0.137024
682 1 0.7775 0.242588 0.165857
688 1 0.92118 0.338784 0.0885917
546 1 0.0394686 0.312834 0.493636
481 1 0.31967 0.084536 0.46968
671 1 0.426103 0.35604 0.140057
1747 1 0.106382 0.303709 0.45619
309 1 0.229766 0.380835 0.0501091
571 1 0.7507 0.31551 0.168973
225 1 0.812218 0.00449202 0.0308271
880 1 0.50177 0.0326823 0.177463
1737 1 0.805154 0.141575 0.00677678
1514 1 0.915656 0.0150831 0.115532
30 1 0.329546 0.494008 0.29778
1434 1 0.386013 0.116419 0.258234
1639 1 0.991677 0.47123 0.0813586
1257 1 0.712893 0.220866 0.392634
1131 1 0.445449 0.29998 0.488029
1264 1 0.844615 0.0890569 0.0483921
281 1 0.102344 0.305301 0.175913
366 1 0.288083 0.154481 0.159477
418 1 0.29141 0.193217 0.242469
2012 1 0.64442 0.0523607 0.210907
1643 1 0.695721 0.15533 0.318805
676 1 0.787228 0.11605 0.272005
124 1 0.160132 0.250467 0.175567
527 1 0.225892 0.290786 0.206194
24 1 0.377438 0.126211 0.177114
143 1 0.446446 0.0597816 0.240983
288 1 0.527278 0.15975 0.392525
1739 1 0.851161 0.221156 0.154876
1683 1 0.989026 0.152672 0.269886
1297 1 0.417281 0.264569 0.330934
1949 1 0.575561 0.0827664 0.206055
442 1 0.0179521 0.243539 0.282728
534 1 0.638965 0.466067 0.194905
524 1 0.206088 0.373508 0.211834
738 1 0.132464 0.388703 0.181726
1226 1 0.174094 0.321913 0.138582
1813 1 0.546281 0.316474 0.139921
151 1 0.454185 0.169726 0.207021
613 1 0.736893 0.251661 0.244485
387 1 0.622298 0.464088 0.354484
1428 1 0.835931 0.155975 0.200567
1641 1 0.226678 0.413813 0.116849
1898 1 0.627485 0.218217 0.495988
1013 1 0.481984 0.331483 0.193989
918 1 0.36139 0.282154 0.0211453
816 1 0.0342487 0.285179 0.206452
1938 1 0.527292 0.454091 0.157249
214 1 0.132038 0.252578 0.0223876
837 1 0.566335 0.483429 0.215656
1075 1 0.683041 0.282652 0.123325
1565 1 0.202978 0.186455 0.42413
514 1 0.687371 0.0104311 0.36651
759 1 0.316769 0.392636 0.126045
1780 1 0.576053 0.0751573 0.2825
812 1 0.928133 0.408543 0.220091
1414 1 0.834906 0.246035 0.229806
590 1 0.157157 0.00775131 0.405656
291 1 0.448865 0.0946915 0.176274
1647 1 0.256338 0.496319 0.310527
499 1 0.764571 0.467637 0.130261
675 1 0.662862 0.0781692 0.135548
610 1 0.644288 0.11644 0.0605138
1779 1 0.85329 0.0755411 0.274529
273 1 0.453788 0.089432 0.496436
1625 1 0.0948101 0.141008 0.209159
941 1 0.340778 0.163558 0.392088
2045 1 0.608222 0.146647 0.356106
1953 1 0.725922 0.0788147 0.354091
1513 1 0.85428 0.179738 0.274309
1057 1 0.170188 0.207813 0.358568
1772 1 0.138589 0.0726704 0.209709
61 1 0.479689 0.269131 0.144725
1019 1 0.442237 0.19272 0.292462
845 1 0.619979 0.0482924 0.373755
343 1 0.955834 0.296017 0.242735
47 1 0.907679 0.289621 0.369249
1186 1 0.978138 0.282936 0.329977
1506 1 0.276905 0.147989 0.358222
31 1 0.373543 0.194079 0.249915
693 1 0.34408 0.217242 0.172232
1648 1 0.696846 0.128797 0.237313
367 1 0.885061 0.32479 0.227847
1046 1 0.829238 0.320321 0.342944
395 1 0.770159 0.168582 0.14295
1306 1 0.986111 0.217967 0.219662
995 1 0.245121 0.224064 0.336127
1048 1 0.896423 0.382573 0.0317967
942 1 0.276128 0.351241 0.184604
996 1 0.689359 0.434341 0.133102
207 1 0.586396 0.00709511 0.22599
686 1 0.735628 0.261248 0.324202
832 1 0.671904 0.305873 0.216866
1466 1 0.0182112 0.370157 0.121373
1419 1 0.298335 0.443396 0.187839
1270 1 0.306898 0.348904 0.0492786
494 1 0.336245 0.305336 0.182469
1295 1 0.433355 0.250701 0.225278
1922 1 0.445049 0.320497 0.274157
48 1 0.369174 0.469807 0.135703
791 1 0.32459 0.346706 0.26093
892 1 0.174124 0.371458 0.478599
1351 1 0.65954 0.29979 0.36234
989 1 0.757497 0.454892 0.361403
1677 1 0.699765 0.356648 0.435191
1076 1 0.900841 0.0112553 0.259878
1336 1 0.0430038 0.28077 0.103454
840 1 0.579969 0.082518 0.490263
73 1 0.223316 0.0252423 0.441091
444 1 0.629995 0.448954 0.277769
622 1 0.255643 0.344373 0.112698
1568 1 0.0737775 0.481935 0.205686
1872 1 0.460686 0.309215 0.0755677
1150 1 0.421921 0.485674 0.0824104
92 1 0.272966 0.0495837 0.171586
865 1 0.548846 0.410781 0.269409
1706 1 0.56491 0.456126 0.409593
1527 1 0.15601 0.395296 0.387688
1757 1 0.617092 0.0197709 0.442286
2022 1 0.67612 0.364352 0.166679
1560 1 0.28236 0.296436 0.453689
321 1 0.666973 0.0678355 0.293597
1800 1 0.833934 0.118023 0.440713
1858 1 0.525592 0.0609824 0.436769
1967 1 0.453809 0.414666 0.0759629
2035 1 0.347224 0.157387 0.311694
1119 1 0.689963 0.416594 0.231772
1577 1 0.839384 0.189004 0.422248
454 1 0.827079 0.136524 0.337203
1622 1 0.882434 0.296044 0.293893
1397 1 0.0706801 0.0809703 0.250729
882 1 0.201665 0.126054 0.369375
768 1 0.698442 0.291249 0.0304658
1286 1 0.553828 0.0902236 0.375233
2038 1 0.80579 0.394428 0.304208
801 1 0.0517047 0.272597 0.412265
1878 1 0.914105 0.27344 0.154204
191 1 0.539926 0.203844 0.266554
874 1 0.392547 0.139504 0.448251
707 1 0.813349 0.257276 0.303066
1116 1 0.910568 0.125455 0.29505
878 1 0.281543 0.204044 0.415188
492 1 0.329701 0.185105 0.470739
108 1 0.412394 0.156527 0.359292
616 1 0.905091 0.333079 0.443028
903 1 0.939028 0.365606 0.288799
353 1 0.905548 0.191709 0.214976
2039 1 0.124564 0.343101 0.310286
1733 1 0.301189 0.245795 0.0472704
946 1 0.562811 0.336122 0.0596893
1954 1 0.397911 0.269853 0.152908
1658 1 0.0603786 0.299475 0.334148
706 1 0.161593 0.406796 0.265405
1924 1 0.375142 0.319012 0.392508
1951 1 0.478029 0.398288 0.297618
1745 1 0.16103 0.193207 0.0662674
1842 1 0.741214 0.368214 0.261852
1230 1 0.0105766 0.425434 0.372555
910 1 0.866976 0.381854 0.14783
1436 1 0.204511 0.449972 0.193595
292 1 0.629258 0.414615 0.42695
984 1 0.769768 0.0737224 0.0261909
578 1 0.484888 0.261545 0.282676
1255 1 0.877809 0.170168 0.495932
1853 1 0.922228 0.4531 0.0185626
201 1 0.846792 0.341784 0.0851358
1172 1 0.493471 0.358543 0.373807
1343 1 0.569126 0.32094 0.380363
1149 1 0.994196 0.0319086 0.131858
1875 1 0.0140642 0.07058 0.435349
1579 1 0.0794056 0.214316 0.0522155
282 1 0.528527 0.134682 0.481937
216 1 0.0186338 0.00259083 0.379851
1786 1 0.574167 0.0577667 0.0548647
459 1 0.50182 0.375351 0.122536
320 1 0.375262 0.328379 0.467571
698 1 0.878802 0.481616 0.424442
615 1 0.22412 0.052987 0.365561
863 1 0.08037 0.363301 0.249557
1275 1 0.763638 0.176915 0.227529
2027 1 0.503033 0.340663 0.00854994
156 1 0.917453 0.182027 0.400344
576 1 0.0582698 0.163047 0.294958
968 1 0.233613 0.211121 0.169341
648 1 0.553152 0.0128502 0.337259
1580 1 0.918439 0.107529 0.452305
1004 1 0.277538 0.268643 0.260179
506 1 0.455671 0.120689 0.295635
8 1 0.38409 0.343188 0.310598
411 1 0.40235 0.210777 0.41563
928 1 0.629337 0.244338 0.403705
1041 1 0.791101 0.233179 0.374473
1732 1 0.905038 0.257775 0.469114
373 1 0.927566 0.22999 0.307296
83 1 0.121482 0.287303 0.378192
1029 1 0.446052 0.301427 0.411135
43 1 0.512148 0.159284 0.319957
592 1 0.0834482 0.224061 0.341116
378 1 0.34674 0.310102 0.10303
747 1 0.397821 0.351762 0.0510489
117 1 0.363546 0.278436 0.247334
732 1 0.839362 0.297364 0.426289
1488 1 0.0173049 0.405627 0.449053
224 1 0.885158 0.427671 0.289983
1032 1 0.0688586 0.358315 0.401445
822 1 0.0167781 0.32344 0.276883
1432 1 0.307107 0.353127 0.367292
1390 1 0.374279 0.407754 0.175581
2020 1 0.427849 0.412932 0.233468
171 1 0.501674 0.229397 0.44105
777 1 0.586533 0.266733 0.28467
1212 1 0.156862 0.32272 0.0515184
1975 1 0.556929 0.236407 0.14391
1833 1 0.227249 0.325246 0.290536
1578 1 0.614519 0.341373 0.301726
1582 1 0.967609 0.126119 0.344026
1340 1 0.0210353 0.241688 0.492839
1373 1 0.895553 0.462921 0.130311
990 1 0.232249 0.437359 0.267018
519 1 0.965256 0.499956 0.456599
1602 1 0.090642 0.428594 0.431591
1254 1 0.39514 0.340809 0.220082
1223 1 0.755795 0.299384 0.0905122
1055 1 0.894951 0.109261 0.378269
57 1 0.473285 0.102707 0.382713
608 1 0.419018 0.404534 0.451652
1135 1 0.590088 0.176219 0.438069
1717 1 0.644414 0.227751 0.332968
1983 1 0.1765 0.0594389 0.30243
1409 1 0.402235 0.0445053 0.00853043
1385 1 0.68543 0.442205 0.385541
1668 1 0.971366 0.355045 0.356352
1871 1 0.950588 0.41098 0.0768449
873 1 0.0196471 0.488404 0.152736
1285 1 0.693255 0.256893 0.461665
886 1 0.328211 0.027995 0.0125781
397 1 0.198998 0.443565 0.452574
1679 1 0.0483166 0.135618 0.367885
471 1 0.119157 0.152076 0.344657
1808 1 0.955567 0.0304426 0.195653
1372 1 0.319807 0.0965805 0.118022
232 1 0.292996 0.481 0.10846
1024 1 0.871278 0.224875 0.354536
2009 1 0.0841745 0.0318494 0.411368
670 1 0.970785 0.247329 0.419475
1108 1 0.0770065 0.457431 0.275552
38 1 0.337122 0.251272 0.385099
1809 1 0.177906 0.0904823 0.453256
1290 1 0.118533 0.426503 0.330001
244 1 0.271676 0.290782 0.377986
1650 1 0.341845 0.25984 0.474691
19 1 0.459145 0.171647 0.46439
1092 1 0.678761 0.217919 0.0435479
1426 1 0.563311 0.215763 0.345135
1887 1 0.480743 0.176502 0.0260304
1406 1 0.880528 0.371947 0.353955
1592 1 0.958072 0.435772 0.154451
1564 1 0.999895 0.202148 0.356532
196 1 0.0763834 0.11546 0.452934
956 1 0.201537 0.260855 0.435971
663 1 0.503262 0.403508 0.211346
1826 1 0.409119 0.440684 0.306818
2024 1 0.203129 0.205685 0.497362
1736 1 0.745902 0.29729 0.398477
145 1 0.709483 0.41979 0.308636
1034 1 0.172519 0.476239 0.29933
1067 1 0.931119 0.3078 0.0176492
2040 1 0.392682 0.486254 0.244303
449 1 0.732794 0.487381 0.272013
192 1 0.759179 0.384709 0.402523
1697 1 0.148211 0.0736337 0.0722609
436 1 0.206243 0.397481 0.330184
157 1 0.973406 0.040882 0.0018724
854 1 0.210317 0.13301 0.0625943
1009 1 0.323264 0.236365 0.313673
1463 1 0.408234 0.477034 0.375148
1666 1 0.645934 0.392211 0.34765
36 1 0.782027 0.364018 0.0370894
1900 1 0.136149 0.472656 0.158403
1384 1 0.756166 0.0971182 0.433502
720 1 0.060989 0.00857348 0.304217
172 1 0.342713 0.388624 0.436203
557 1 0.985949 0.335533 0.426118
2001 1 0.75427 0.151018 0.379283
5 1 0.127832 0.0307786 0.479955
689 1 0.895107 0.247735 0.0812404
465 1 0.507845 0.0656175 0.0984491
1597 1 0.0532185 0.375011 0.321237
2034 1 0.81998 0.472681 0.266733
708 1 0.12625 0.096964 0.397419
1054 1 0.694453 0.0275379 0.446666
1538 1 0.327617 0.0528549 0.307208
844 1 0.851797 0.482052 0.0624763
723 1 0.339823 0.421791 0.26764
488 1 0.0903838 0.0790664 0.324203
1722 1 0.55335 0.402533 0.0167004
70 1 0.250891 0.456075 0.371424
591 1 0.664666 0.0407506 0.0585017
261 1 0.6951 0.314041 0.290253
121 1 0.467541 0.195917 0.134967
1083 1 0.288329 0.367505 0.485068
1033 1 0.114029 0.380738 0.0243988
544 1 0.223017 0.0257512 0.0818207
2044 1 0.789934 0.0256355 0.213459
1367 1 0.678996 0.167806 0.449805
1151 1 0.88358 0.158613 0.0361961
1421 1 0.496456 0.475234 0.0722354
501 1 0.214297 0.0438622 0.237547
537 1 0.528052 0.337376 0.30247
667 1 0.668551 0.115615 0.387144
1132 1 0.809378 0.0556653 0.352961
651 1 0.37376 0.0121511 0.402133
2032 1 0.736348 0.428527 0.0430481
725 1 0.795033 0.43416 0.445881
858 1 0.14082 0.128163 0.273511
91 1 0.143326 0.161865 0.463255
1047 1 0.23267 0.363604 0.403552
1045 1 0.409002 0.395105 0.369558
589 1 0.0537811 0.184084 0.429886
173 1 0.769908 0.364242 0.472694
1347 1 0.290178 0.400967 0.31791
1968 1 0.209203 0.45214 0.0552748
793 1 0.569962 0.250013 0.458548
640 1 0.598411 0.196386 0.045658
1490 1 0.889836 0.0196685 0.0375499
22 1 0.682421 0.458434 0.461225
393 1 0.776566 0.494644 0.0374758
1518 1 0.77798 0.0203264 0.416822
1187 1 0.932076 0.0542743 0.315282
284 1 0.894041 0.00498927 0.365764
665 1 0.476663 0.48371 0.325637
248 1 0.787934 0.292983 0.489082
567 1 0.842731 0.00481265 0.309177
1865 1 0.157893 0.0323994 0.0101359
1823 1 0.208546 0.498821 0.129935
853 1 0.800898 0.15311 0.497832
776 1 0.878534 0.25603 0.00367867
1011 1 0.807997 0.00414259 0.494887
619 1 0.491077 0.252371 0.00194991
165 1 0.244796 0.125467 0.496223
319 1 0.269324 0.431957 0.912663
601 1 0.416584 0.35863 0.55249
525 1 0.247487 0.322483 0.575235
1303 1 0.428311 0.22409 0.514938
1087 1 0.155407 0.271208 0.514062
916 1 0.585957 0.196305 0.918117
1682 1 0.763343 0.394944 0.964094
342 1 0.739713 0.343677 0.701976
1684 1 0.269665 0.0942147 0.69829
1166 1 0.134657 0.495586 0.810373
1902 1 0.897256 0.414331 0.604208
1140 1 0.778673 0.439046 0.78264
1721 1 0.933423 0.363857 0.567504
1446 1 0.46236 0.0118057 0.880359
1294 1 0.729872 0.0540294 0.511201
1052 1 0.426703 0.476105 0.731221
550 1 0.689061 0.186127 0.540489
1758 1 0.511332 0.246177 0.639988
322 1 0.76616 0.174209 0.584648
1554 1 0.101762 0.0919959 0.979023
424 1 0.683657 0.101091 0.798833
241 1 0.701435 0.397968 0.504128
1940 1 0.511328 0.106216 0.749561
1709 1 0.930308 0.210748 0.641966
978 1 0.599515 0.497573 0.746096
2010 1 0.475347 0.390665 0.875466
106 1 0.0319526 0.0205166 0.833207
1598 1 0.152765 0.19327 0.987488
379 1 0.906259 0.305282 0.610158
1656 1 0.0279965 0.218027 0.56741
1200 1 0.550444 0.214265 0.520435
1970 1 0.111325 0.314715 0.622679
69 1 0.242552 0.473901 0.751911
614 1 0.549498 0.307401 0.575301
158 1 0.724072 0.264466 0.541636
1138 1 0.602645 0.0267063 0.829083
1546 1 0.572556 0.346988 0.956556
467 1 0.0903854 0.294036 0.548872
1547 1 0.0953595 0.219967 0.514731
1910 1 0.463829 0.046295 0.806036
1921 1 0.842269 0.0200615 0.757084
1085 1 0.049752 0.234028 0.90525
1850 1 0.478836 0.303273 0.677635
1144 1 0.700003 0.0962416 0.709312
41 1 0.868465 0.465055 0.746454
633 1 0.53145 0.491098 0.780807
53 1 0.363941 0.0881173 0.717646
1090 1 0.114832 0.101674 0.85035
408 1 0.622224 0.0114208 0.904706
1863 1 0.336827 0.307473 0.612618
1672 1 0.965629 0.0342952 0.72443
1366 1 0.861889 0.284552 0.529723
1551 1 0.22071 0.31736 0.501906
1179 1 0.781139 0.14609 0.886105
1235 1 0.734701 0.0144647 0.958546
1917 1 0.0439981 0.363922 0.999977
1392 1 0.949133 0.0551528 0.626346
66 1 0.647548 0.360208 0.813102
603 1 0.481113 0.159641 0.541624
164 1 0.473657 0.464998 0.531891
1955 1 0.818749 0.353395 0.932165
1585 1 0.190634 0.0957625 0.670957
1766 1 0.548304 0.197118 0.987944
220 1 0.233269 0.197122 0.567755
1829 1 0.818767 0.196465 0.954352
1155 1 0.563467 0.00823669 0.551284
2043 1 0.276149 0.0696762 0.56848
1481 1 0.700914 0.225885 0.610643
1042 1 0.845729 0.184887 0.560866
1305 1 0.15098 0.205513 0.744905
859 1 0.118279 0.0679472 0.548308
28 1 0.246821 0.119618 0.622003
666 1 0.112153 0.484022 0.503903
297 1 0.635774 0.119264 0.924342
788 1 0.270652 0.243529 0.507874
96 1 0.282646 0.252577 0.578943
904 1 0.488465 0.171053 0.669337
1321 1 0.710418 0.157612 0.650067
893 1 0.00435599 0.18853 0.641363
1037 1 0.319611 0.0908377 0.631543
1030 1 0.137565 0.243823 0.662165
1864 1 0.0114041 0.471841 0.753968
566 1 0.193835 0.288913 0.627542
1025 1 0.313463 0.377946 0.629456
226 1 0.552128 0.305368 0.660539
1139 1 0.459647 0.0409516 0.947083
1601 1 0.888962 0.0753683 0.741721
1000 1 0.541139 0.0612353 0.687365
1252 1 0.0810081 0.465107 0.989477
1441 1 0.1342 0.320394 0.719408
1516 1 0.975951 0.36255 0.500411
1274 1 0.515424 0.228684 0.719589
1888 1 0.655799 0.322591 0.591856
902 1 0.796691 0.248834 0.565535
1068 1 0.507891 0.474662 0.984696
1475 1 0.0360194 0.456519 0.658732
431 1 0.689711 0.0851922 0.628062
1866 1 0.155917 0.425164 0.53485
582 1 0.394052 0.282099 0.560498
1540 1 0.792141 0.397552 0.701181
443 1 0.497741 0.476592 0.855564
672 1 0.881937 0.477941 0.833746
885 1 0.700164 0.360008 0.988494
198 1 0.472387 0.381057 0.622698
1447 1 0.280052 0.242234 0.683748
35 1 0.886766 0.101838 0.981337
658 1 0.670974 0.474371 0.781452
691 1 0.635194 0.409139 0.716223
1445 1 0.332577 0.146055 0.949162
1418 1 0.0310524 0.402687 0.570111
1856 1 0.892036 0.483115 0.93835
1614 1 0.470374 0.301047 0.597803
1109 1 0.556212 0.441808 0.562716
1410 1 0.198573 0.380909 0.723679
621 1 0.117496 0.0245215 0.934832
469 1 0.14469 0.00316327 0.745877
72 1 0.0486025 0.156533 0.892011
1923 1 0.166903 0.269406 0.777868
957 1 0.357822 0.488259 0.801832
433 1 0.816495 0.100009 0.573497
1072 1 0.338596 0.316804 0.95772
1499 1 0.091527 0.140977 0.727696
1731 1 0.212307 0.271237 0.700249
365 1 0.323347 0.468601 0.987546
561 1 0.433924 0.214521 0.967143
1642 1 0.237871 0.450456 0.980396
93 1 0.0570104 0.0434781 0.575255
948 1 0.968334 0.139634 0.531288
735 1 0.185838 0.106815 0.540529
329 1 0.568638 0.141302 0.694918
1240 1 0.571337 0.199422 0.604014
350 1 0.623573 0.229601 0.651351
1360 1 0.797061 0.208312 0.71315
792 1 0.0699672 0.21515 0.685207
1383 1 0.00148257 0.395429 0.744657
330 1 0.159928 0.214841 0.569053
1346 1 0.255743 0.263647 0.759256
1449 1 0.643243 0.171462 0.603263
18 1 0.741658 0.304065 0.634016
789 1 0.835187 0.372694 0.574569
1104 1 0.872108 0.089376 0.619714
1785 1 0.102683 0.391332 0.577999
1133 1 0.333241 0.218047 0.627688
1229 1 0.40102 0.198627 0.596827
105 1 0.673654 0.291272 0.674019
181 1 0.786705 0.296602 0.801857
1145 1 0.0507469 0.268436 0.618719
1915 1 0.197764 0.141094 0.740011
712 1 0.151506 0.170335 0.675688
1476 1 0.362887 0.371193 0.70216
403 1 0.49213 0.399281 0.794781
643 1 0.423935 0.36468 0.822243
1557 1 0.225442 0.0556318 0.767428
2031 1 0.0164508 0.316542 0.570298
502 1 0.396526 0.21765 0.672072
1357 1 0.222397 0.390332 0.545296
862 1 0.172164 0.342845 0.578122
923 1 0.407637 0.261346 0.795958
911 1 0.672383 0.345822 0.738884
1379 1 0.892034 0.359593 0.663806
1805 1 0.138036 0.383335 0.670686
1825 1 0.0439936 0.292248 0.714297
1063 1 0.174875 0.148039 0.603424
1661 1 0.0175387 0.493791 0.906173
518 1 0.989136 0.338867 0.691729
1491 1 0.335063 0.332797 0.534032
1868 1 0.711158 0.409248 0.724288
1662 1 0.7259 0.133019 0.500032
1320 1 0.525287 0.385129 0.691936
168 1 0.768064 0.40025 0.543769
1189 1 0.835431 0.436165 0.514334
17 1 0.282818 0.380294 0.971699
977 1 0.559749 0.424735 0.75681
1556 1 0.433796 0.419359 0.679352
1448 1 0.788297 0.0830031 0.732585
1227 1 0.260171 0.463201 0.516525
76 1 0.933163 0.114378 0.690802
1269 1 0.0539507 0.0427224 0.652636
1112 1 0.0360744 0.163139 0.50984
810 1 0.510144 0.117869 0.601011
703 1 0.654457 0.105705 0.555641
1444 1 0.0190484 0.173606 0.727132
376 1 0.940412 0.0695002 0.550338
421 1 0.209321 0.215165 0.637617
109 1 0.250017 0.175412 0.691652
1849 1 0.270412 0.114815 0.79201
1901 1 0.398777 0.0625646 0.63573
1939 1 0.479633 0.126143 0.814059
456 1 0.651154 0.158016 0.701821
419 1 0.779394 0.280888 0.72508
516 1 0.731348 0.107204 0.571896
532 1 0.0495974 0.366566 0.635243
1994 1 0.217363 0.23152 0.919884
328 1 0.269392 0.151356 0.856714
1583 1 0.35624 0.284643 0.711851
1225 1 0.719275 0.233255 0.693864
337 1 0.768947 0.284667 0.882256
491 1 0.974601 0.293527 0.632083
2 1 0.11059 0.103991 0.624816
1073 1 0.0242605 0.115033 0.663537
409 1 0.409792 0.134481 0.684795
834 1 0.533718 0.321882 0.73425
10 1 0.78128 0.380681 0.627556
434 1 0.9526 0.257947 0.768393
1107 1 0.216112 0.365259 0.650358
951 1 0.303223 0.189936 0.795426
1990 1 0.388564 0.367483 0.624152
642 1 0.330361 0.251222 0.828946
1801 1 0.559435 0.348668 0.802802
1468 1 0.882609 0.295324 0.771979
131 1 0.939359 0.245673 0.579552
146 1 0.0799011 0.458531 0.589329
1387 1 0.269406 0.445847 0.606785
427 1 0.464097 0.184699 0.750102
1544 1 0.602442 0.363581 0.563515
1660 1 0.389136 0.408686 0.765838
741 1 0.0836073 0.421331 0.763751
1621 1 0.0521865 0.0304335 0.733393
200 1 0.0442404 0.0159751 0.980741
50 1 0.0963204 0.191052 0.610157
1165 1 0.501706 0.481517 0.618168
535 1 0.762453 0.40729 0.885729
1196 1 0.969996 0.455119 0.551995
631 1 0.567722 0.278007 0.930707
1572 1 0.318077 0.461008 0.863389
815 1 0.24543 0.0115494 0.514099
1750 1 0.344502 0.222951 0.541494
684 1 0.374322 0.0502679 0.785138
1199 1 0.938109 0.429043 0.784847
1689 1 0.436452 0.301336 0.987309
1791 1 0.253225 0.397254 0.781468
1345 1 0.324804 0.0121405 0.518361
480 1 0.819037 0.025162 0.849539
280 1 0.725377 0.0328435 0.675899
276 1 0.349905 0.439166 0.613902
1120 1 0.775268 0.109115 0.646865
1896 1 0.141979 0.151992 0.800276
485 1 0.281752 0.258186 0.964111
1049 1 0.026092 0.127626 0.582152
1694 1 0.411224 0.179126 0.812573
1883 1 0.870922 0.19421 0.697046
406 1 0.796203 0.221659 0.816599
1388 1 0.959871 0.129466 0.615501
1438 1 0.182222 0.019701 0.868785
596 1 0.42562 0.110935 0.76051
1927 1 0.443064 0.254122 0.722148
1770 1 0.843969 0.119683 0.685784
1563 1 0.971197 0.252713 0.692905
1182 1 0.134012 0.36285 0.782375
1382 1 0.218595 0.265283 0.833778
277 1 0.564468 0.254086 0.782841
440 1 0.592177 0.206542 0.728401
545 1 0.80384 0.347215 0.852904
2047 1 0.826741 0.321114 0.651546
58 1 0.199458 0.0857848 0.830103
60 1 0.214752 0.194768 0.796085
1777 1 0.780414 0.241575 0.645999
2003 1 0.917964 0.207377 0.838913
1391 1 0.926833 0.356146 0.738158
692 1 0.943197 0.184244 0.720011
1796 1 0.0515202 0.361345 0.802954
1077 1 0.18949 0.304856 0.901031
1163 1 0.16053 0.441281 0.627105
1569 1 0.709319 0.301089 0.79444
551 1 0.865729 0.490692 0.563135
315 1 0.765376 0.324287 0.561864
1349 1 0.854943 0.241996 0.618423
867 1 0.311044 0.406786 0.557353
1469 1 0.548187 0.362525 0.512978
641 1 0.330626 0.397124 0.816916
897 1 0.675817 0.318297 0.92917
797 1 0.924763 0.284627 0.842189
439 1 0.11393 0.392514 0.872932
422 1 0.0970148 0.470069 0.902856
1526 1 0.480296 0.293951 0.783445
414 1 0.60616 0.311675 0.744811
585 1 0.733353 0.23738 0.768974
1889 1 0.753746 0.365312 0.774564
356 1 0.19478 0.00691358 0.941826
1610 1 0.42516 0.453819 0.815126
664 1 0.518999 0.0749377 0.538035
1302 1 0.847849 0.110387 0.913578
44 1 0.147733 0.455138 0.70981
3 1 0.0383022 0.453482 0.514416
1231 1 0.462261 0.312152 0.856618
1843 1 0.445385 0.442168 0.938459
662 1 0.487824 0.390827 0.548066
705 1 0.906224 0.351459 0.811505
1913 1 0.68884 0.450945 0.982791
1574 1 0.246293 0.0841476 0.892938
1493 1 0.119795 0.412641 0.949158
2008 1 0.411306 0.0976209 0.842687
1300 1 0.509657 0.402035 0.951984
1099 1 0.634215 0.250681 0.564599
1002 1 0.763403 0.0735366 0.920603
202 1 0.147129 0.0821397 0.75917
988 1 0.700004 0.0765738 0.99844
1322 1 0.545034 0.0356577 0.978663
1483 1 0.592217 0.460577 0.991929
575 1 0.807532 0.496288 0.829241
794 1 0.662623 0.176528 0.780425
680 1 0.60533 0.0966128 0.763483
1164 1 0.814455 0.145974 0.766968
316 1 0.684558 0.0593211 0.900517
362 1 0.180463 0.171542 0.873185
1788 1 0.422532 0.130635 0.985875
1195 1 0.229528 0.198003 0.995862
67 1 0.283972 0.0924226 0.966119
1129 1 0.385309 0.203052 0.746723
1147 1 0.540401 0.149589 0.870733
677 1 0.607309 0.197141 0.841116
130 1 0.744465 0.162212 0.814972
2026 1 0.883413 0.270577 0.689356
1545 1 0.725545 0.156711 0.961111
1708 1 0.0352003 0.149942 0.798815
1433 1 0.202471 0.126548 0.986638
1852 1 0.358423 0.158753 0.864851
33 1 0.886781 0.153495 0.794029
1803 1 0.630165 0.0577899 0.973392
253 1 0.729044 0.473241 0.53956
271 1 0.265704 0.309569 0.648862
1416 1 0.320856 0.176886 0.719885
1959 1 0.493746 0.207265 0.831492
1402 1 0.0857967 0.287442 0.777048
2046 1 0.273915 0.355212 0.712348
447 1 0.354331 0.323643 0.843588
483 1 0.459934 0.368812 0.731261
432 1 0.566899 0.294514 0.854633
287 1 0.710722 0.414199 0.819182
1616 1 0.900166 0.378928 0.953522
934 1 0.883555 0.343488 0.879512
2011 1 0.184217 0.362464 0.836844
511 1 0.195861 0.394215 0.923091
139 1 0.318091 0.423089 0.733781
1176 1 0.0745215 0.441772 0.836184
697 1 0.394228 0.0898865 0.932466
1771 1 0.984499 0.382635 0.832955
1611 1 0.57963 0.11563 0.988889
1841 1 0.398186 0.325859 0.758229
714 1 0.366617 0.458122 0.687512
909 1 0.701841 0.23423 0.838773
704 1 0.550687 0.379589 0.620328
629 1 0.852309 0.432159 0.667718
324 1 0.910221 0.41216 0.866542
818 1 0.936497 0.42789 0.698779
505 1 0.97146 0.388456 0.626884
175 1 0.352888 0.129566 0.786395
1999 1 0.179534 0.441093 0.77924
539 1 0.293874 0.146903 0.5654
856 1 0.560324 0.491379 0.923255
523 1 0.44715 0.0519664 0.56833
1509 1 0.825519 0.167006 0.634757
1830 1 0.825655 0.0390269 0.953125
1043 1 0.119296 0.0625985 0.692
778 1 0.634232 0.168953 0.98796
630 1 0.47148 0.0778336 0.663914
392 1 0.705776 0.127555 0.891561
116 1 0.61701 0.029379 0.605703
1756 1 0.163431 0.446072 0.858441
113 1 0.751395 0.211138 0.907994
1268 1 0.0799615 0.188408 0.976544
504 1 0.423371 0.0327707 0.725795
111 1 0.58532 0.0964002 0.619168
1669 1 0.644922 0.432541 0.629424
14 1 0.0108877 0.0899528 0.849498
1948 1 0.995957 0.102674 0.736388
233 1 0.120914 0.146362 0.913189
384 1 0.735175 0.0388026 0.847744
1018 1 0.688914 0.239547 0.949158
762 1 0.849491 0.18856 0.86734
927 1 0.874468 0.0911417 0.837915
1587 1 0.248634 0.463773 0.829128
2021 1 0.330137 0.0901236 0.864964
740 1 0.496276 0.179577 0.927109
1562 1 0.656253 0.24668 0.73906
1311 1 0.0752602 0.363944 0.71361
197 1 0.0935924 0.319971 0.861804
152 1 0.92588 0.29932 0.937707