ITEM: TIMESTEP
100000
ITEM: NUMBER OF ATOMS
2048
ITEM: BOX BOUNDS pp pp pp
0.0000000000000000e+00 1.3679807573413575e+01
0.0000000000000000e+00 1.3679807573413575e+01
0.0000000000000000e+00 1.3679807573413575e+01
ITEM: ATOMS id type xs ys zs
1287 1 0.669114 0.020815 0.0288646
617 1 0.812643 0.0476696 0.01162
1071 1 0.039042 0.0588221 0.00581274
2004 1 0.109546 0.0943902 0.046365
1334 1 0.243996 0.0528137 0.0146042
1895 1 0.365079 0.0787625 0.0191814
434 1 0.453401 0.0505023 0.0454396
1219 1 0.876757 0.0753451 0.0431474
1623 1 0.0567061 0.144506 0.0189839
1084 1 0.294468 0.106107 0.0328823
408 1 0.428054 0.103817 0.000991952
247 1 0.493653 0.106862 0.0266139
1273 1 0.343305 0.158484 0.0482346
59 1 0.436519 0.189373 0.0291951
636 1 0.568257 0.169597 0.000885288
1026 1 0.676107 0.151365 0.0107656
1360 1 0.813276 0.194125 0.0290878
645 1 0.969103 0.197258 0.00284709
438 1 0.125997 0.200189 0.0316241
381 1 0.258751 0.245358 0.000318363
528 1 0.365872 0.223641 0.0161982
1428 1 0.511239 0.243353 0.0216527
1474 1 0.712424 0.210398 0.021845
101 1 0.905012 0.247418 0.0113834
1248 1 0.0425042 0.263137 0.0149188
441 1 0.102206 0.264886 0.0478892
1529 1 0.632285 0.267924 0.0392802
1575 1 0.759468 0.261198 0.0421709
494 1 0.151848 0.322988 0.0157933
495 1 0.283345 0.320306 0.00674094
1440 1 0.356516 0.304832 0.0323333
1937 1 0.437818 0.300862 0.029468
1952 1 0.699269 0.319667 0.0332789
96 1 0.805555 0.308958 0.00267086
1511 1 0.226158 0.381256 0.00492406
1568 1 0.34989 0.395797 0.0299421
1857 1 0.514398 0.383711 0.0242577
1319 1 0.758222 0.398227 0.0164807
1290 1 0.843309 0.369221 0.00483068
405 1 0.0517751 0.40917 0.0282394
1970 1 0.281732 0.438954 0.0210355
510 1 0.682075 0.402811 0.0160974
187 1 0.931375 0.443755 0.0444617
1603 1 0.20031 0.45322 0.0158116
1452 1 0.351398 0.491432 0.0247652
1392 1 0.583125 0.462069 0.00528054
1176 1 0.656983 0.469799 0.000602426
1944 1 0.997089 0.480166 0.0436582
1404 1 0.0642952 0.0121229 0.0738786
1241 1 0.163646 0.0483077 0.0927695
192 1 0.27543 0.0040548 0.0610963
1413 1 0.389959 0.0115273 0.052789
414 1 0.558057 0.03862 0.0575859
806 1 0.763791 0.0316408 0.0770974
1424 1 0.247101 0.0744814 0.0928581
1101 1 0.507161 0.0830662 0.0883773
2005 1 0.628512 0.0589383 0.0702292
591 1 0.714069 0.0829131 0.051131
602 1 0.785621 0.0989386 0.07202
1035 1 0.992474 0.0919826 0.0556815
1655 1 0.176893 0.1138 0.0647604
477 1 0.429423 0.113055 0.0674528
1522 1 0.572077 0.111745 0.0646147
592 1 0.846264 0.136455 0.0705891
584 1 0.923113 0.141665 0.0504472
1711 1 0.0897364 0.161166 0.07825
198 1 0.233552 0.15914 0.0950682
722 1 0.71652 0.154173 0.0794163
1402 1 0.945867 0.197879 0.0851911
440 1 0.0180602 0.203111 0.0973703
1859 1 0.187826 0.210482 0.0696122
1296 1 0.290299 0.201358 0.0620331
593 1 0.390289 0.227871 0.0883273
107 1 0.47477 0.248942 0.0812681
789 1 0.563472 0.213981 0.0715769
1662 1 0.655561 0.207844 0.0682267
1252 1 0.87674 0.206605 0.0682289
1254 1 0.154543 0.272301 0.0992244
1980 1 0.246155 0.271682 0.0646197
396 1 0.334362 0.280947 0.0988611
1380 1 0.856121 0.276947 0.0565343
894 1 0.918478 0.270813 0.0883712
865 1 0.981765 0.267052 0.0536116
1828 1 0.0299578 0.32453 0.0590976
713 1 0.199317 0.324137 0.0990293
1487 1 0.512673 0.332259 0.0861508
1076 1 0.703004 0.339931 0.0982088
1821 1 0.77187 0.340848 0.0618937
91 1 0.88208 0.345748 0.0568783
853 1 0.16354 0.388867 0.0548985
1875 1 0.244312 0.399595 0.071251
747 1 0.41777 0.357383 0.0616119
2002 1 0.572716 0.380818 0.0641677
2031 1 0.118063 0.443927 0.0678584
228 1 0.418267 0.441045 0.0575162
518 1 0.646419 0.425128 0.0905237
1130 1 0.779509 0.410061 0.0860279
1448 1 0.306673 0.470505 0.0967456
1513 1 0.529855 0.48728 0.0533826
1780 1 0.695883 0.485 0.0617062
1034 1 0.771136 0.473755 0.0528465
1416 1 0.940984 0.491534 0.0998029
1192 1 0.336161 0.0125146 0.114486
374 1 0.443748 0.0341583 0.125471
111 1 0.507656 0.0317803 0.13325
1217 1 0.702773 0.0478982 0.115045
2009 1 0.376658 0.0784934 0.124181
761 1 0.846644 0.0690358 0.118736
770 1 0.916546 0.0860491 0.102561
55 1 0.0506559 0.102475 0.120686
1624 1 0.121165 0.104487 0.116347
302 1 0.185963 0.103273 0.135116
702 1 0.356241 0.147196 0.1392
774 1 0.657491 0.109047 0.111763
197 1 0.983686 0.141486 0.121595
1046 1 0.139639 0.164104 0.14823
372 1 0.592975 0.159266 0.134118
687 1 0.672538 0.186949 0.146094
262 1 0.774353 0.189833 0.107034
652 1 0.84221 0.172089 0.132165
642 1 0.101107 0.224938 0.113721
1907 1 0.21508 0.23604 0.142207
1391 1 0.280072 0.206437 0.138827
874 1 0.600782 0.231247 0.137701
1021 1 0.277387 0.285812 0.140427
780 1 0.532065 0.252316 0.129267
1224 1 0.655806 0.2877 0.109417
963 1 0.728226 0.273095 0.119786
16 1 0.811483 0.251116 0.103027
475 1 0.980429 0.255837 0.132918
1346 1 0.0223966 0.347869 0.124847
781 1 0.0975926 0.324849 0.104691
331 1 0.407511 0.309428 0.136918
1718 1 0.579041 0.328315 0.11192
1433 1 0.827618 0.328489 0.11465
1237 1 0.914291 0.332913 0.127264
406 1 0.144195 0.383163 0.121042
1663 1 0.355829 0.381892 0.120816
1393 1 0.748237 0.389404 0.143188
1041 1 0.872562 0.397443 0.106042
565 1 0.0794134 0.414924 0.13484
72 1 0.436362 0.41082 0.124042
1977 1 0.517111 0.407099 0.114545
1438 1 0.583128 0.438527 0.130783
435 1 0.943026 0.402334 0.116144
1089 1 0.158577 0.487804 0.115913
1169 1 0.23531 0.458065 0.117556
501 1 0.386296 0.473507 0.145545
1872 1 0.530055 0.481992 0.131731
487 1 0.68801 0.468081 0.132158
1611 1 0.756384 0.494755 0.122289
2033 1 0.855862 0.463581 0.130183
905 1 0.998848 0.456566 0.112308
1515 1 0.0411656 0.0317733 0.179221
2019 1 0.176731 0.00134514 0.153711
623 1 0.562561 0.00564714 0.166531
1620 1 0.636653 0.0215818 0.182326
412 1 0.905108 0.0499377 0.167673
1261 1 0.12485 0.0584515 0.17148
1329 1 0.297624 0.0562158 0.167637
1845 1 0.419326 0.0629152 0.188975
138 1 0.578369 0.0793425 0.161199
93 1 0.737877 0.0591508 0.193129
421 1 0.832767 0.0587403 0.195394
517 1 0.9772 0.0621796 0.150317
61 1 0.435123 0.128787 0.155758
551 1 0.517308 0.124569 0.161006
1167 1 0.630444 0.126058 0.19453
1322 1 0.73634 0.140312 0.150939
166 1 0.877995 0.123237 0.16144
699 1 0.0553677 0.170147 0.152064
1419 1 0.218113 0.175139 0.187562
382 1 0.493877 0.189374 0.175932
1817 1 0.922117 0.182972 0.160222
1010 1 0.34939 0.216873 0.165921
1912 1 0.419909 0.20768 0.151568
1900 1 0.865516 0.238965 0.183527
1295 1 0.996575 0.201014 0.178666
34 1 0.0618287 0.284942 0.152112
583 1 0.120363 0.25151 0.184535
1016 1 0.340485 0.290224 0.181422
1531 1 0.458327 0.266565 0.164617
625 1 0.618585 0.292827 0.177078
1634 1 0.694782 0.253712 0.178353
1785 1 0.773141 0.289331 0.175138
1091 1 0.129542 0.329057 0.185884
1884 1 0.200334 0.313552 0.173247
1288 1 0.290169 0.345596 0.194316
1747 1 0.460284 0.32965 0.199405
119 1 0.516274 0.314772 0.160582
164 1 0.960746 0.308134 0.174058
1303 1 0.219061 0.387392 0.15264
1526 1 0.40642 0.383866 0.191466
1436 1 0.608167 0.369281 0.159347
1246 1 0.672337 0.393928 0.17635
147 1 0.831311 0.387163 0.165484
1585 1 0.141288 0.437463 0.171481
590 1 0.293829 0.438013 0.161237
1608 1 0.492569 0.40598 0.180647
1123 1 0.785401 0.448203 0.169516
557 1 0.8939 0.411877 0.179572
1299 1 0.967203 0.435294 0.177155
1323 1 0.456206 0.479098 0.155794
1139 1 0.629356 0.482539 0.192818
1121 1 0.874989 0.0188205 0.242232
1758 1 0.205549 0.08965 0.207028
928 1 0.354323 0.0622168 0.218943
157 1 0.525632 0.0660874 0.21332
1892 1 0.665865 0.0759499 0.229006
673 1 0.972442 0.0929725 0.24881
1496 1 0.0678266 0.121202 0.201364
808 1 0.264232 0.113098 0.245356
1306 1 0.439403 0.117688 0.224102
266 1 0.561139 0.118332 0.241589
745 1 0.907427 0.100113 0.223446
28 1 0.116169 0.185672 0.212672
1302 1 0.292031 0.184908 0.209192
1143 1 0.562129 0.180967 0.204648
684 1 0.621081 0.168689 0.247501
1298 1 0.690122 0.196353 0.23062
13 1 0.830743 0.172592 0.201476
1024 1 0.934516 0.172459 0.235677
1784 1 0.439507 0.206596 0.221493
1759 1 0.610235 0.231216 0.212546
283 1 0.752892 0.24406 0.225548
1726 1 0.00516181 0.26323 0.220047
555 1 0.190007 0.261074 0.234409
1661 1 0.276268 0.251208 0.208925
195 1 0.409797 0.295321 0.228454
400 1 0.509422 0.269416 0.210198
846 1 0.926343 0.253898 0.221596
1730 1 0.686407 0.333093 0.235019
301 1 0.896996 0.321453 0.204258
1928 1 0.110572 0.39702 0.226581
526 1 0.210735 0.368829 0.228057
87 1 0.515354 0.383196 0.242578
1406 1 0.927652 0.396301 0.241503
829 1 0.99809 0.37561 0.212167
1841 1 0.208226 0.437854 0.210361
465 1 0.337432 0.414596 0.21714
1363 1 0.591426 0.425201 0.200025
532 1 0.704442 0.42846 0.237068
184 1 0.830934 0.4087 0.243398
1589 1 0.0507102 0.498385 0.20731
1909 1 0.113961 0.477167 0.230131
621 1 0.314672 0.495905 0.239867
329 1 0.479607 0.478269 0.223697
1935 1 0.814786 0.495226 0.22129
243 1 0.962974 0.480495 0.237243
792 1 0.135427 0.0412688 0.273786
1011 1 0.192586 0.00491257 0.298959
1546 1 0.328755 0.000817272 0.261869
71 1 0.602373 0.0471606 0.255611
991 1 0.952321 0.00804267 0.275788
845 1 0.0586818 0.0739508 0.254812
2008 1 0.22555 0.0640304 0.276533
1431 1 0.317226 0.0789553 0.284508
983 1 0.394393 0.0725474 0.282974
1381 1 0.461204 0.0503155 0.254514
682 1 0.53434 0.0551461 0.289787
1923 1 0.783566 0.0656793 0.25255
1059 1 0.0195888 0.144423 0.261686
207 1 0.616141 0.113626 0.29835
763 1 0.704566 0.126775 0.253327
1805 1 0.924457 0.132497 0.29931
566 1 0.0840021 0.159734 0.288825
1099 1 0.157097 0.164236 0.265759
205 1 0.243335 0.186355 0.28358
2034 1 0.360552 0.150352 0.270468
1286 1 0.751233 0.188261 0.269922
1253 1 0.862696 0.15152 0.265521
967 1 0.0558371 0.219551 0.254153
1533 1 0.115379 0.236222 0.294289
941 1 0.552337 0.224424 0.270962
1524 1 0.874071 0.219691 0.254431
1885 1 0.939645 0.211509 0.299702
420 1 0.00496254 0.259747 0.293695
1886 1 0.0606248 0.296992 0.253434
904 1 0.230655 0.280091 0.293844
194 1 0.330985 0.257534 0.261441
597 1 0.425953 0.268336 0.293305
1117 1 0.502219 0.273793 0.280937
934 1 0.596511 0.288592 0.259123
795 1 0.712791 0.285249 0.293728
2021 1 0.80172 0.285098 0.262511
1484 1 0.135939 0.314048 0.266439
498 1 0.455887 0.33643 0.274101
419 1 0.757881 0.340364 0.250345
1489 1 0.859978 0.336931 0.265922
1327 1 0.935902 0.301371 0.2852
1530 1 0.238152 0.396498 0.296156
1068 1 0.291258 0.359126 0.267426
909 1 0.360876 0.364608 0.296643
857 1 0.563392 0.355245 0.295435
669 1 0.639211 0.36601 0.272539
1376 1 0.993087 0.358493 0.281196
1670 1 0.0413258 0.403591 0.266163
1070 1 0.182954 0.443124 0.291609
1345 1 0.433673 0.408248 0.268482
1054 1 0.5489 0.444701 0.256593
1732 1 0.635262 0.44689 0.262897
1080 1 0.0400454 0.476566 0.279686
237 1 0.786012 0.451387 0.298707
1198 1 0.880223 0.457827 0.253032
1979 1 0.0895626 0.0120801 0.32376
994 1 0.324742 0.0320611 0.338601
885 1 0.606811 0.00836608 0.342508
1444 1 0.664749 0.0270002 0.30308
426 1 0.750434 0.019996 0.303138
1996 1 0.861247 0.0447194 0.31612
391 1 0.941979 0.0189428 0.349036
831 1 0.0280968 0.0996039 0.319659
431 1 0.117891 0.0933242 0.315432
1815 1 0.494414 0.0982542 0.332768
604 1 0.785444 0.0849789 0.320538
1471 1 0.188876 0.118587 0.321531
115 1 0.272845 0.125988 0.334467
161 1 0.430115 0.130168 0.31833
1445 1 0.553067 0.148105 0.317632
1598 1 0.706469 0.125984 0.342655
1647 1 0.479431 0.182249 0.331876
1887 1 0.799745 0.151314 0.329892
504 1 0.856242 0.198492 0.348414
1134 1 0.174608 0.216063 0.321764
785 1 0.306775 0.201052 0.312131
1617 1 0.384501 0.204877 0.307251
202 1 0.540612 0.229572 0.341919
791 1 0.692549 0.200711 0.316233
1083 1 0.767729 0.240636 0.310227
927 1 0.290001 0.261773 0.346404
850 1 0.364083 0.274529 0.335111
847 1 0.831469 0.275728 0.329459
1399 1 0.164141 0.319019 0.3356
68 1 0.243174 0.345786 0.344886
732 1 0.313413 0.33985 0.34219
439 1 0.418666 0.32301 0.340297
1733 1 0.538877 0.300624 0.343734
1833 1 0.704117 0.349469 0.32168
149 1 0.790649 0.339406 0.313662
1112 1 0.971869 0.31815 0.345766
958 1 0.0738717 0.35133 0.30349
410 1 0.486523 0.355377 0.337508
1984 1 0.875889 0.393374 0.30498
868 1 0.0676322 0.420937 0.331214
881 1 0.290734 0.448635 0.31334
935 1 0.416324 0.428253 0.331168
879 1 0.508652 0.421605 0.308029
1500 1 0.587593 0.410099 0.343884
723 1 0.981986 0.444438 0.313477
1274 1 0.122631 0.482798 0.301507
1753 1 0.360774 0.482269 0.300016
248 1 0.441195 0.494866 0.30539
1579 1 0.591242 0.496345 0.30822
1680 1 0.68598 0.454697 0.313087
2036 1 0.837448 0.494917 0.31446
961 1 0.913974 0.483234 0.326162
219 1 0.131299 0.00357116 0.390746
1183 1 0.204661 0.0452049 0.358397
1173 1 0.409084 0.00628237 0.358874
1194 1 0.464994 0.03731 0.38548
1827 1 0.553799 0.039758 0.377074
1469 1 0.296749 0.0639697 0.397083
776 1 0.411049 0.0835936 0.367981
1277 1 0.723129 0.0627601 0.376215
1301 1 0.815419 0.0677456 0.380331
936 1 0.144659 0.118326 0.390099
605 1 0.337646 0.107215 0.359107
1236 1 0.550177 0.120731 0.39513
655 1 0.620203 0.147184 0.366634
1456 1 0.0275963 0.167023 0.376443
1741 1 0.0949967 0.176722 0.361533
1972 1 0.213428 0.171444 0.367796
825 1 0.378203 0.1612 0.384676
1129 1 0.503175 0.197407 0.397243
1028 1 0.942623 0.198656 0.376524
1891 1 0.0455797 0.23354 0.365094
409 1 0.415321 0.237362 0.375502
925 1 0.633314 0.233551 0.35577
1386 1 0.697431 0.206611 0.396837
633 1 0.115941 0.265592 0.364148
1792 1 0.20275 0.253642 0.381466
1149 1 0.473199 0.276666 0.358024
461 1 0.664996 0.281493 0.399272
288 1 0.735325 0.283849 0.374931
1606 1 0.805523 0.275445 0.3989
1754 1 0.897177 0.292886 0.354489
1179 1 0.0637973 0.310516 0.371718
1760 1 0.597817 0.311031 0.39814
196 1 0.848644 0.346015 0.372063
721 1 0.0124962 0.378693 0.357344
1690 1 0.0979411 0.370106 0.390015
70 1 0.188928 0.373334 0.386036
306 1 0.539412 0.366915 0.389556
1778 1 0.919791 0.379225 0.363492
118 1 0.147617 0.421117 0.353496
1114 1 0.274542 0.401292 0.379194
1235 1 0.344707 0.407776 0.357815
1969 1 0.474676 0.44525 0.365148
1537 1 0.696275 0.407522 0.36847
957 1 0.770736 0.418401 0.377456
1450 1 0.852261 0.439612 0.373115
1250 1 0.245109 0.473237 0.379353
1073 1 0.318048 0.483948 0.377289
1989 1 0.553976 0.464977 0.379048
1234 1 0.713662 0.491632 0.386996
1199 1 0.0169416 0.0329843 0.405009
338 1 0.354016 0.0170584 0.415067
1325 1 0.623189 0.0464221 0.428358
57 1 0.869918 0.0310154 0.407095
662 1 0.928073 0.00190919 0.432143
204 1 0.0884359 0.0586167 0.420118
1801 1 0.175663 0.0599598 0.435668
1094 1 0.23296 0.0937372 0.410701
1304 1 0.706627 0.0509655 0.447171
1673 1 0.944754 0.0660261 0.411211
1781 1 0.0809178 0.131223 0.428611
783 1 0.296774 0.143057 0.422533
1868 1 0.391336 0.111626 0.44066
630 1 0.459453 0.121587 0.41921
1106 1 0.667377 0.118151 0.412109
165 1 0.743636 0.106176 0.427007
1572 1 0.849391 0.139204 0.40138
1366 1 0.92666 0.137892 0.407148
1933 1 0.40733 0.190718 0.441499
822 1 0.576462 0.190375 0.41478
103 1 0.762273 0.176705 0.420514
151 1 0.99593 0.15294 0.433646
1410 1 0.194274 0.201012 0.447154
680 1 0.26125 0.212676 0.410143
569 1 0.335805 0.209001 0.421146
1687 1 0.88218 0.202044 0.425634
152 1 0.0124151 0.269619 0.428865
1541 1 0.142289 0.255476 0.446729
1136 1 0.331098 0.288951 0.400125
489 1 0.527317 0.263338 0.418476
462 1 0.735387 0.266164 0.439883
819 1 0.929926 0.26757 0.415859
541 1 0.00682362 0.341157 0.415751
1836 1 0.14147 0.314114 0.409618
1560 1 0.713906 0.348614 0.402867
1684 1 0.884019 0.327974 0.432114
1693 1 0.241395 0.374331 0.437418
1351 1 0.312605 0.36211 0.43347
799 1 0.371311 0.396959 0.435617
249 1 0.470628 0.369924 0.417416
629 1 0.642979 0.384589 0.405888
1019 1 0.779191 0.362812 0.429156
1914 1 0.0439266 0.428166 0.410216
1757 1 0.207601 0.444353 0.442266
1267 1 0.600897 0.438994 0.42551
1240 1 0.742653 0.444638 0.438291
1627 1 0.859553 0.401567 0.443615
18 1 0.13123 0.460574 0.427856
1601 1 0.386661 0.481558 0.422155
1626 1 0.934184 0.473791 0.40686
395 1 0.101961 0.0064439 0.466479
12 1 0.236126 0.0327847 0.455419
159 1 0.346778 0.0260797 0.484524
120 1 0.0297078 0.0644685 0.47307
974 1 0.276908 0.0881022 0.481377
582 1 0.460564 0.0573341 0.457777
1615 1 0.820216 0.0583567 0.485388
293 1 0.892141 0.0729073 0.467999
1411 1 0.161569 0.121962 0.465967
977 1 0.236168 0.148069 0.486308
186 1 0.559308 0.102485 0.462393
142 1 0.811186 0.125853 0.460052
882 1 0.957724 0.102753 0.477958
1131 1 0.127065 0.187 0.496657
1519 1 0.49386 0.166743 0.465345
1653 1 0.590797 0.159757 0.492362
368 1 0.677769 0.171699 0.467946
757 1 0.762979 0.178088 0.495232
1696 1 0.904988 0.159184 0.498057
1498 1 0.0597071 0.242151 0.48135
611 1 0.456628 0.238744 0.458686
127 1 0.652583 0.236875 0.465547
981 1 0.220441 0.267739 0.456553
264 1 0.298692 0.261682 0.474538
322 1 0.387728 0.262958 0.486241
805 1 0.532185 0.253113 0.491717
370 1 0.942855 0.253794 0.497124
1729 1 0.0665927 0.31122 0.460543
1293 1 0.417839 0.338657 0.46221
1773 1 0.483063 0.305247 0.453145
21 1 0.651607 0.329488 0.461233
305 1 0.847011 0.321001 0.489182
39 1 0.961525 0.34952 0.471694
1473 1 0.0336313 0.380717 0.468933
920 1 0.159982 0.374035 0.454701
910 1 0.47878 0.391861 0.483649
427 1 0.5678 0.359972 0.458118
1185 1 0.712036 0.375687 0.488023
842 1 0.0908563 0.429631 0.483644
2006 1 0.410074 0.447141 0.491783
1557 1 0.536979 0.427025 0.467712
413 1 0.668843 0.427253 0.456026
373 1 0.798072 0.429634 0.497472
570 1 0.954402 0.428583 0.458476
312 1 0.0175111 0.453135 0.481765
832 1 0.148035 0.485849 0.499678
1904 1 0.31565 0.459829 0.490929
1873 1 0.0522483 0.0101134 0.542835
1103 1 0.212356 0.0239209 0.541573
1377 1 0.483505 0.0471144 0.526716
614 1 0.582534 0.0278534 0.511801
698 1 0.682828 0.0328756 0.525291
242 1 0.755769 0.0430775 0.549152
577 1 0.146663 0.0559965 0.524264
1159 1 0.410905 0.0662615 0.503869
215 1 0.634651 0.0963392 0.507696
1214 1 0.968327 0.0633546 0.548067
397 1 0.0716251 0.132198 0.504011
33 1 0.191645 0.11786 0.543608
1459 1 0.469395 0.11588 0.516204
1943 1 0.714949 0.10319 0.502427
497 1 0.823896 0.124895 0.547832
129 1 0.00776222 0.197855 0.507257
660 1 0.271941 0.153895 0.548443
886 1 0.416027 0.18239 0.5287
531 1 0.69351 0.166072 0.5439
988 1 0.964973 0.154738 0.541251
578 1 0.258334 0.224329 0.516669
1967 1 0.339214 0.215384 0.522373
856 1 0.635284 0.21069 0.537183
1051 1 0.787137 0.239609 0.540561
1200 1 0.836333 0.200874 0.507903
2046 1 0.00932921 0.283001 0.521107
53 1 0.118376 0.294472 0.514065
870 1 0.170114 0.257508 0.549566
1480 1 0.231857 0.286484 0.529081
457 1 0.351881 0.283481 0.547795
1520 1 0.453721 0.298314 0.515396
416 1 0.603868 0.267732 0.509628
1854 1 0.708791 0.250054 0.525673
150 1 0.75681 0.299469 0.502764
607 1 0.064064 0.34197 0.549441
624 1 0.189067 0.333526 0.505007
1629 1 0.308143 0.347312 0.506806
44 1 0.510283 0.349353 0.532278
1535 1 0.971065 0.343362 0.547713
255 1 0.123361 0.362901 0.518826
1343 1 0.379145 0.353275 0.541941
926 1 0.580592 0.368438 0.537376
42 1 0.796854 0.355809 0.531801
480 1 0.908056 0.375534 0.511402
1116 1 0.223189 0.425964 0.512238
862 1 0.363497 0.431774 0.542707
467 1 0.639911 0.418274 0.521038
918 1 0.726644 0.423836 0.532176
86 1 0.913009 0.442173 0.537706
1356 1 0.473862 0.466805 0.512244
1197 1 0.119452 0.00714362 0.565706
932 1 0.56975 0.00769532 0.577652
1187 1 0.834768 0.0441937 0.563862
1357 1 0.05207 0.085219 0.579374
1015 1 0.244259 0.0999347 0.59159
709 1 0.337674 0.0751022 0.593687
1890 1 0.534061 0.0841027 0.565189
1832 1 0.611875 0.0598597 0.576773
1097 1 0.364109 0.132606 0.555784
50 1 0.450157 0.13608 0.584576
835 1 0.623512 0.139687 0.565171
458 1 0.90283 0.135282 0.574414
1818 1 0.0543329 0.164638 0.571303
1701 1 0.123691 0.151444 0.55641
1700 1 0.192157 0.197657 0.591362
1702 1 0.351898 0.198204 0.588039
1657 1 0.515932 0.162128 0.560914
106 1 0.768433 0.184264 0.5825
667 1 0.0941999 0.220675 0.556485
1858 1 0.287715 0.244493 0.582322
1706 1 0.40773 0.244805 0.574594
1523 1 0.496166 0.243535 0.556058
546 1 0.566216 0.225754 0.574754
1396 1 0.886777 0.213783 0.557807
113 1 0.0425051 0.288097 0.589183
838 1 0.21298 0.291668 0.59782
269 1 0.635953 0.278195 0.575762
153 1 0.847214 0.28612 0.558431
1916 1 0.946676 0.270428 0.566706
1769 1 0.109812 0.30611 0.593155
1275 1 0.293363 0.316134 0.578715
637 1 0.442403 0.338737 0.580451
1779 1 0.510524 0.300699 0.590548
1899 1 0.787143 0.312656 0.58612
1931 1 0.185698 0.357525 0.585399
893 1 0.656651 0.360911 0.594105
1703 1 0.728477 0.362566 0.579499
1218 1 0.862433 0.375986 0.570084
1643 1 0.929946 0.38415 0.597469
1414 1 0.000721262 0.404411 0.557326
1808 1 0.0642728 0.423814 0.57538
221 1 0.150525 0.423798 0.558395
1262 1 0.287123 0.42353 0.552653
715 1 0.429753 0.412544 0.580146
1095 1 0.558926 0.435892 0.550927
1830 1 0.66849 0.429705 0.588345
620 1 0.751477 0.443965 0.59577
453 1 0.865584 0.449764 0.59419
608 1 0.227676 0.486967 0.556727
1802 1 0.295423 0.492605 0.567503
794 1 0.396587 0.471444 0.599661
1591 1 0.618831 0.493469 0.572574
78 1 0.962044 0.4595 0.594651
1527 1 0.0347351 0.0332525 0.627373
1584 1 0.457072 0.0410667 0.601222
449 1 0.781519 0.0239783 0.626144
1340 1 0.880635 0.00848695 0.609327
572 1 0.958865 0.0375756 0.618753
552 1 0.178792 0.0701625 0.603448
1405 1 0.555731 0.0584836 0.628304
1860 1 0.702573 0.0705983 0.625151
1958 1 0.796514 0.0905347 0.602322
861 1 0.914055 0.083292 0.641789
523 1 0.113337 0.102711 0.618275
1547 1 0.360789 0.142898 0.639752
97 1 0.493509 0.101782 0.625252
1294 1 0.743388 0.130153 0.626273
1633 1 0.994324 0.115064 0.630981
1829 1 0.247009 0.168971 0.644993
1787 1 0.417737 0.194863 0.648062
859 1 0.599378 0.198081 0.63185
1648 1 0.662443 0.152737 0.62079
1550 1 0.831781 0.167508 0.606702
1222 1 0.0142252 0.228432 0.601447
304 1 0.134118 0.216641 0.625382
261 1 0.528761 0.224577 0.647681
126 1 0.711099 0.212817 0.60866
525 1 0.0840331 0.277323 0.648926
310 1 0.369608 0.297495 0.627697
1990 1 0.456414 0.261394 0.621458
239 1 0.790671 0.254321 0.632497
1849 1 0.877336 0.25697 0.646305
246 1 0.598789 0.317326 0.623838
902 1 0.715795 0.303849 0.617415
488 1 0.83428 0.3171 0.648732
1988 1 0.902789 0.319444 0.601565
1658 1 0.961802 0.317687 0.639652
1213 1 0.0557493 0.366196 0.618792
1463 1 0.299211 0.37716 0.618375
295 1 0.497546 0.383299 0.603113
1852 1 0.573724 0.395972 0.626228
1950 1 0.844492 0.38975 0.640314
346 1 0.0198032 0.43146 0.629926
253 1 0.170982 0.418735 0.624955
1616 1 0.330409 0.448478 0.612587
1862 1 0.720228 0.401701 0.643935
729 1 0.246386 0.450507 0.622397
650 1 0.497186 0.450503 0.62775
1965 1 0.557274 0.489125 0.618485
1060 1 0.271026 0.00698921 0.650191
1074 1 0.329648 0.0248911 0.688478
1063 1 0.417111 0.0142185 0.659422
706 1 0.58374 0.0473278 0.693668
1908 1 0.728271 0.0174727 0.694193
679 1 0.826679 0.0321958 0.682243
659 1 0.921369 0.00957857 0.670644
2042 1 0.988491 0.0301062 0.690908
1069 1 0.0886228 0.0640202 0.67264
634 1 0.186704 0.0735312 0.699851
1033 1 0.312388 0.0924404 0.658723
277 1 0.383228 0.0762664 0.652215
1292 1 0.658943 0.0553035 0.68669
281 1 0.763687 0.0848652 0.676691
558 1 0.0578176 0.149369 0.658545
1966 1 0.162411 0.124595 0.660843
1840 1 0.437684 0.127428 0.667048
718 1 0.504402 0.110753 0.693332
553 1 0.59824 0.122399 0.659818
1154 1 0.699032 0.119993 0.684685
1641 1 0.82874 0.105888 0.671537
141 1 0.188407 0.190272 0.678996
737 1 0.342693 0.197154 0.693243
188 1 0.557396 0.173914 0.692449
2025 1 0.741917 0.171779 0.682088
913 1 0.932135 0.157958 0.657218
1432 1 0.995639 0.190519 0.661195
736 1 0.0713449 0.215072 0.689176
1162 1 0.70109 0.241934 0.674205
939 1 0.153973 0.295224 0.669331
1425 1 0.258934 0.271166 0.653669
1434 1 0.408425 0.26114 0.674317
1000 1 0.636275 0.265094 0.65017
235 1 0.972257 0.25065 0.689825
944 1 0.0466719 0.327181 0.698943
948 1 0.219061 0.326915 0.670045
836 1 0.295809 0.339385 0.696406
1959 1 0.431073 0.329648 0.681382
58 1 0.500543 0.303906 0.66235
429 1 0.668353 0.334229 0.672915
1734 1 0.753517 0.319183 0.673068
603 1 0.109274 0.364062 0.683817
1108 1 0.364653 0.364686 0.683892
760 1 0.497667 0.387395 0.694347
833 1 0.907632 0.370232 0.668099
612 1 0.06667 0.423554 0.682685
1919 1 0.3087 0.418977 0.677072
1987 1 0.442162 0.408785 0.652124
1124 1 0.647358 0.416871 0.680245
122 1 0.806207 0.447371 0.67365
1675 1 0.890532 0.442541 0.689515
1941 1 0.115298 0.478122 0.659727
947 1 0.200318 0.468728 0.678741
708 1 0.318142 0.499497 0.657256
751 1 0.375394 0.453479 0.686451
48 1 0.431395 0.490474 0.659006
1354 1 0.507084 0.467842 0.694874
1800 1 0.591759 0.465295 0.674771
256 1 0.726209 0.475604 0.656502
1238 1 0.988723 0.49087 0.675456
1061 1 0.0709196 0.0143722 0.72194
110 1 0.140598 0.0217359 0.740948
73 1 0.405797 0.0188347 0.732688
827 1 0.513634 0.0445997 0.724913
236 1 0.10154 0.0827333 0.747824
112 1 0.270339 0.058707 0.718133
1720 1 0.443005 0.0773102 0.731274
54 1 0.77209 0.0509276 0.745922
105 1 0.893677 0.0951302 0.707438
473 1 0.0231782 0.102692 0.706383
81 1 0.227861 0.120166 0.734125
308 1 0.353373 0.130113 0.720621
234 1 0.634109 0.103818 0.740505
574 1 0.473417 0.171308 0.716867
208 1 0.63008 0.171215 0.702496
380 1 0.794603 0.198334 0.744102
282 1 0.856622 0.171951 0.718087
1776 1 0.92941 0.158138 0.72777
1148 1 0.011597 0.204248 0.731674
911 1 0.470817 0.249856 0.706197
1618 1 0.741782 0.240051 0.748091
635 1 0.111744 0.26064 0.735231
108 1 0.20582 0.257081 0.703789
17 1 0.355502 0.299536 0.710616
213 1 0.430128 0.295773 0.748441
222 1 0.658086 0.276085 0.736374
1630 1 0.812313 0.267201 0.700276
916 1 0.878584 0.286745 0.711068
772 1 0.51689 0.328867 0.726078
1986 1 0.594952 0.306266 0.743143
1465 1 0.75334 0.324912 0.743698
280 1 0.9617 0.317594 0.712887
116 1 0.573012 0.397409 0.710952
484 1 0.645915 0.368351 0.736838
1478 1 0.72501 0.393519 0.738669
80 1 0.794144 0.37308 0.702618
520 1 0.864567 0.361863 0.719308
1998 1 0.118609 0.436558 0.735658
661 1 0.199496 0.405195 0.701657
533 1 0.266294 0.419525 0.738627
1728 1 0.447049 0.41136 0.742869
1142 1 0.969717 0.427917 0.711319
387 1 0.0249071 0.469933 0.73742
1259 1 0.191926 0.4547 0.749221
173 1 0.453781 0.489536 0.73503
1202 1 0.567475 0.461602 0.740953
2013 1 0.67625 0.471487 0.732948
915 1 0.806471 0.499607 0.743845
144 1 0.95251 0.490424 0.738331
1704 1 0.302709 0.0279177 0.798067
1350 1 0.582164 0.0366384 0.775683
425 1 0.713507 0.0357669 0.793971
884 1 0.965165 0.0256766 0.77044
2011 1 0.04888 0.0606103 0.794237
169 1 0.212532 0.072195 0.798088
1878 1 0.282294 0.0937204 0.785043
1184 1 0.347541 0.0761478 0.770828
143 1 0.490893 0.0639279 0.790878
1265 1 0.874701 0.0825077 0.778352
1770 1 0.0261493 0.129002 0.771049
587 1 0.159544 0.144129 0.754801
1571 1 0.423543 0.131729 0.782786
1505 1 0.499437 0.129459 0.76495
1401 1 0.569303 0.12716 0.764132
1384 1 0.726128 0.101999 0.758334
52 1 0.812295 0.114571 0.753609
30 1 0.955735 0.102669 0.782299
1009 1 0.0836898 0.175378 0.765374
762 1 0.300936 0.179789 0.757894
1654 1 0.53851 0.196033 0.790784
385 1 0.733045 0.174632 0.773999
1282 1 0.165847 0.230392 0.769518
601 1 0.227636 0.201636 0.79135
1333 1 0.410447 0.217555 0.752388
1562 1 0.462439 0.20046 0.796443
128 1 0.590376 0.233349 0.751155
353 1 0.899215 0.234526 0.754083
1963 1 0.2353 0.274315 0.787593
1353 1 0.305696 0.262027 0.761125
672 1 0.536392 0.271348 0.792986
1739 1 0.825466 0.299123 0.767257
1155 1 0.957934 0.270223 0.773654
1347 1 0.0112739 0.317133 0.790498
23 1 0.192104 0.329405 0.763778
1271 1 0.37469 0.349663 0.777637
481 1 0.667505 0.315301 0.799832
1566 1 0.12449 0.352407 0.751909
1573 1 0.210589 0.39243 0.782855
2037 1 0.284396 0.355481 0.769196
849 1 0.540695 0.356955 0.795048
328 1 0.951539 0.350032 0.781077
691 1 0.0493004 0.406423 0.769848
1127 1 0.36745 0.422989 0.760205
1191 1 0.520784 0.429743 0.799215
1318 1 0.687065 0.420698 0.788673
1688 1 0.814698 0.422065 0.765823
1476 1 0.254576 0.47069 0.789837
356 1 0.325626 0.47783 0.771255
375 1 0.514266 0.498546 0.775092
730 1 0.749333 0.45669 0.757434
1482 1 0.868358 0.466035 0.785555
1756 1 0.104807 0.0210641 0.805236
688 1 0.554797 0.0175846 0.842521
1272 1 0.655216 0.00391567 0.820944
755 1 0.906186 0.0181724 0.814164
1137 1 0.428064 0.0538167 0.817703
759 1 0.546334 0.0938743 0.83724
1092 1 0.60966 0.066532 0.839489
1794 1 0.0746953 0.128546 0.82667
694 1 0.28346 0.149073 0.83897
1660 1 0.360931 0.127064 0.822555
1458 1 0.664851 0.141869 0.803927
2043 1 0.761974 0.11315 0.846167
1544 1 0.904986 0.14242 0.807905
756 1 0.996541 0.134461 0.841384
344 1 0.177695 0.151389 0.838703
1610 1 0.40587 0.183392 0.828495
535 1 0.613823 0.186503 0.806629
1427 1 0.825947 0.150681 0.814537
841 1 0.0230701 0.249591 0.82657
542 1 0.101339 0.216538 0.821678
1096 1 0.172675 0.223631 0.847702
1352 1 0.371919 0.248942 0.813578
1555 1 0.818164 0.223428 0.829359
483 1 0.937224 0.230355 0.828411
437 1 0.0815366 0.2935 0.8133
1225 1 0.301079 0.293114 0.832905
962 1 0.451252 0.270614 0.824065
2020 1 0.719421 0.267519 0.818654
1313 1 0.163731 0.322351 0.841619
2000 1 0.399799 0.322117 0.849861
225 1 0.899032 0.300791 0.813939
1556 1 0.0178685 0.394853 0.831931
201 1 0.340648 0.365238 0.83898
854 1 0.447328 0.373466 0.826153
1003 1 0.623925 0.382529 0.822095
14 1 0.734936 0.361496 0.80923
1877 1 0.849296 0.364328 0.813317
22 1 0.0991518 0.41454 0.820245
1315 1 0.28462 0.407541 0.81999
1276 1 0.439371 0.444335 0.802364
1020 1 0.776305 0.422406 0.829482
1645 1 0.935906 0.422089 0.825295
369 1 0.0725842 0.478057 0.802039
1651 1 0.142854 0.491829 0.805586
681 1 0.566236 0.455862 0.847044
1113 1 0.996852 0.460801 0.807283
1263 1 0.0241394 0.00322672 0.853864
357 1 0.14111 0.00773899 0.865833
864 1 0.204113 0.0473777 0.873314
1220 1 0.259298 0.00288219 0.859543
1534 1 0.360126 0.0227195 0.863014
820 1 0.422861 0.0395952 0.894989
1195 1 0.62742 0.00836423 0.888754
754 1 0.714691 0.0186092 0.87593
816 1 0.848001 0.00702621 0.887147
1514 1 0.963558 0.0426983 0.868091
1751 1 0.0693748 0.0594433 0.87464
701 1 0.129079 0.0886718 0.892441
908 1 0.282901 0.0695409 0.851787
1492 1 0.480754 0.0799872 0.865301
1297 1 0.696606 0.091327 0.860336
507 1 0.79925 0.057645 0.871642
1814 1 0.86778 0.0777451 0.854608
123 1 0.423995 0.119694 0.860375
155 1 0.506365 0.147484 0.866219
1507 1 0.589951 0.137136 0.870363
1497 1 0.0478208 0.187184 0.859391
1394 1 0.114096 0.159601 0.873478
468 1 0.332567 0.157451 0.899886
524 1 0.660863 0.16156 0.881519
456 1 0.735502 0.196343 0.856946
332 1 0.826222 0.169203 0.889648
1105 1 0.240181 0.231258 0.861377