ITEM: TIMESTEP
100000
ITEM: NUMBER OF ATOMS
2048
ITEM: BOX BOUNDS pp pp pp
0.0000000000000000e+00 1.1635780856594225e+01
0.0000000000000000e+00 1.1635780856594225e+01
0.0000000000000000e+00 1.1635780856594225e+01
ITEM: ATOMS id type xs ys zs
1 1 0.00459372 0.0039927 0.00128139
5 1 0.124313 0.0101205 0.00616059
7 1 0.190971 0.00625521 0.0614829
24 1 0.627448 0.0611911 0.055329
26 1 0.818472 0.0569554 0.00481041
30 1 0.935007 0.0592564 0.00378763
2 1 0.0590366 0.0677626 0.00147752
37 1 0.125891 0.119515 0.00625937
39 1 0.192947 0.121401 0.0621117
6 1 0.191938 0.0632228 0.00627601
16 1 0.366978 0.0718294 0.0619081
20 1 0.50518 0.0691704 0.0550679
51 1 0.567206 0.123908 0.0479361
61 1 0.870884 0.124009 0.0109244
40 1 0.120698 0.187129 0.0569391
41 1 0.243354 0.132017 0.00164742
43 1 0.305441 0.129931 0.0603976
52 1 0.4983 0.177103 0.0545003
55 1 0.691926 0.125586 0.0521933
60 1 0.755021 0.18627 0.059915
58 1 0.809904 0.184351 0.000437572
33 1 0.997144 0.127161 0.00778992
67 1 0.0489221 0.242768 0.0566576
38 1 0.186054 0.18961 0.00419617
42 1 0.306602 0.193173 0.00157204
77 1 0.372495 0.237077 0.00624831
81 1 0.500664 0.248803 0.0115613
83 1 0.565999 0.248174 0.0601924
56 1 0.627242 0.189592 0.053218
93 1 0.873739 0.243551 0.00633525
36 1 0.987614 0.189822 0.0565456
66 1 0.0587948 0.310279 0.00227491
71 1 0.183361 0.251659 0.0581219
80 1 0.375199 0.305432 0.0596369
78 1 0.439759 0.306891 0.00163355
82 1 0.555696 0.309639 0.00215132
87 1 0.6873 0.252362 0.057316
94 1 0.926964 0.309169 0.00543679
68 1 0.99599 0.309673 0.059024
97 1 0.00134927 0.374859 0.00103942
101 1 0.12705 0.368058 0.00441372
105 1 0.249657 0.370181 0.00385982
107 1 0.314176 0.362372 0.0619438
113 1 0.505348 0.372321 0.000960319
88 1 0.62842 0.320447 0.0614569
92 1 0.746805 0.317297 0.05067
99 1 0.0606631 0.376343 0.0621563
104 1 0.133942 0.429799 0.0593092
106 1 0.312333 0.429844 0.00185057
109 1 0.374301 0.375399 0.00593347
115 1 0.568251 0.378223 0.0617567
119 1 0.684085 0.385335 0.0550345
124 1 0.752581 0.436357 0.0525974
123 1 0.812064 0.376086 0.0599317
122 1 0.820177 0.434957 0.00189473
125 1 0.879782 0.379066 0.000481297
1025 1 0.00446897 0.496051 0.000367601
98 1 0.066624 0.438681 0.00349041
1031 1 0.190345 0.497014 0.0610814
1033 1 0.256318 0.497423 0.00672256
112 1 0.382556 0.439453 0.0606073
1041 1 0.503409 0.499391 0.000385562
1051 1 0.81596 0.495985 0.0589563
1053 1 0.880679 0.497317 0.00625495
126 1 0.938137 0.444284 0.0095818
142 1 0.43353 0.059367 0.115523
146 1 0.573759 0.0619868 0.114252
28 1 0.744605 0.0551516 0.0638065
154 1 0.816934 0.0615722 0.123758
31 1 0.940593 0.00769539 0.0673974
4 1 0.000423997 0.0634333 0.0741943
35 1 0.0637134 0.122215 0.0691204
8 1 0.122836 0.0680648 0.0737347
12 1 0.253311 0.0668791 0.0686134
47 1 0.432867 0.122722 0.0658489
185 1 0.745866 0.122385 0.117367
59 1 0.807312 0.121376 0.06446
32 1 0.872447 0.0636183 0.0680089
63 1 0.931553 0.12355 0.0628352
162 1 0.067876 0.186199 0.124479
169 1 0.248003 0.125428 0.124769
48 1 0.374454 0.18421 0.0668098
174 1 0.449937 0.182201 0.121062
178 1 0.558489 0.181207 0.116828
181 1 0.62887 0.127892 0.111028
182 1 0.692051 0.185684 0.11554
64 1 0.873754 0.183531 0.0656854
197 1 0.120074 0.248817 0.11453
44 1 0.245706 0.192941 0.0729219
75 1 0.315198 0.248384 0.0669036
79 1 0.433936 0.243605 0.0656246
209 1 0.501206 0.247704 0.115057
217 1 0.747865 0.244708 0.120375
91 1 0.809829 0.248111 0.0639738
221 1 0.865988 0.242113 0.123258
95 1 0.930393 0.247026 0.0673014
194 1 0.0498626 0.304289 0.121907
72 1 0.111884 0.312285 0.0626991
198 1 0.182615 0.312228 0.12259
76 1 0.247722 0.301667 0.0691418
202 1 0.313284 0.30829 0.121335
210 1 0.56935 0.307068 0.124498
213 1 0.633136 0.253563 0.120237
218 1 0.807245 0.311044 0.119455
229 1 0.122671 0.372594 0.118225
103 1 0.190271 0.370496 0.0626048
84 1 0.50405 0.323657 0.0731706
214 1 0.694303 0.313787 0.117166
96 1 0.876598 0.313027 0.0705583
225 1 0.998176 0.373639 0.120043
234 1 0.322431 0.427524 0.12368
111 1 0.439248 0.382436 0.0691096
116 1 0.505063 0.436584 0.0660419
245 1 0.631497 0.383443 0.119407
250 1 0.812941 0.431077 0.118071
127 1 0.938516 0.37789 0.0654791
254 1 0.940285 0.435512 0.124682
226 1 0.073466 0.438937 0.11249
108 1 0.251438 0.437751 0.0769762
242 1 0.562929 0.438212 0.123392
120 1 0.625226 0.444658 0.0636748
246 1 0.687602 0.442619 0.121551
1177 1 0.757962 0.496716 0.120621
128 1 0.878045 0.44034 0.0704154
100 1 0.998705 0.438264 0.0643455
134 1 0.189602 0.0614357 0.126599
141 1 0.373461 0.000352825 0.12821
147 1 0.55957 0.00192583 0.18682
152 1 0.623816 0.0594058 0.182499
151 1 0.679566 0.00192398 0.17729
156 1 0.74496 0.0592795 0.180425
155 1 0.803682 0.000433131 0.183944
129 1 0.996574 0.00501651 0.131129
130 1 0.0603456 0.0641027 0.140342
138 1 0.31755 0.064866 0.126492
144 1 0.374499 0.065084 0.184967
177 1 0.499713 0.115127 0.126364
150 1 0.682494 0.0650268 0.125764
187 1 0.815801 0.121842 0.186179
189 1 0.872135 0.121966 0.12768
158 1 0.935934 0.0693868 0.128271
165 1 0.134586 0.129948 0.129477
171 1 0.312152 0.129835 0.186201
173 1 0.372356 0.126824 0.127389
183 1 0.686424 0.129449 0.181127
188 1 0.744546 0.1866 0.182454
186 1 0.809022 0.180442 0.129788
190 1 0.927475 0.183313 0.126664
161 1 0.994273 0.126278 0.127929
195 1 0.0670803 0.249878 0.183485
166 1 0.188663 0.189827 0.134755
170 1 0.312663 0.190175 0.130895
176 1 0.380385 0.187811 0.181968
211 1 0.562954 0.247972 0.184664
184 1 0.627903 0.189334 0.181977
219 1 0.808105 0.244872 0.182496
193 1 0.99591 0.246078 0.127393
200 1 0.118946 0.310966 0.178905
199 1 0.183086 0.256234 0.186428
201 1 0.246842 0.255656 0.133373
205 1 0.372466 0.252101 0.128142
206 1 0.435534 0.306685 0.125083
212 1 0.500587 0.308846 0.185077
215 1 0.688326 0.253822 0.187277
220 1 0.749416 0.309271 0.185502
224 1 0.868044 0.298759 0.183313
222 1 0.939176 0.306972 0.126811
227 1 0.0598288 0.370439 0.184535
231 1 0.185852 0.370407 0.18629
233 1 0.254628 0.368095 0.126729
237 1 0.384565 0.37244 0.130873
243 1 0.565771 0.374406 0.187401
216 1 0.631427 0.321783 0.178162
251 1 0.807922 0.368583 0.183701
253 1 0.871365 0.373165 0.132576
255 1 0.934419 0.372158 0.182718
232 1 0.122082 0.433771 0.18348
230 1 0.185504 0.434255 0.127034
236 1 0.254336 0.429878 0.182966
241 1 0.500698 0.385232 0.131785
247 1 0.69372 0.381665 0.184353
249 1 0.74906 0.375208 0.127382
252 1 0.763624 0.436275 0.184897
1155 1 0.065856 0.49625 0.187011
1159 1 0.191749 0.494368 0.181655
1163 1 0.317366 0.486233 0.184976
240 1 0.383812 0.438768 0.185338
238 1 0.439959 0.443562 0.126058
248 1 0.625987 0.446246 0.181998
256 1 0.880254 0.438358 0.187104
1181 1 0.882971 0.497881 0.127825
135 1 0.190336 0.00116462 0.192482
148 1 0.49516 0.0544965 0.194788
274 1 0.566662 0.0622051 0.245789
277 1 0.626764 0.00483743 0.248364
278 1 0.684627 0.0612339 0.244017
282 1 0.80939 0.0617306 0.249709
160 1 0.87215 0.0613511 0.189766
285 1 0.874457 0.00168982 0.242874
159 1 0.936887 0.002112 0.191465
257 1 0.99815 0.003118 0.24912
132 1 0.00084258 0.0649727 0.192713
136 1 0.125767 0.0641015 0.188506
167 1 0.190918 0.124893 0.191459
140 1 0.25499 0.0653411 0.191215
175 1 0.433377 0.122713 0.18791
309 1 0.629515 0.122414 0.237776
191 1 0.935089 0.117171 0.196695
163 1 0.0652244 0.126469 0.191835
168 1 0.127882 0.186755 0.194466
172 1 0.249576 0.180878 0.188583
301 1 0.375871 0.129706 0.241126
179 1 0.567256 0.128372 0.187828
306 1 0.563806 0.181463 0.249837
313 1 0.74936 0.127752 0.237291
314 1 0.8049 0.183033 0.244563
164 1 0.00130802 0.190309 0.195489
203 1 0.313347 0.243998 0.18786
180 1 0.501952 0.189612 0.189295
310 1 0.684816 0.190071 0.246636
345 1 0.753933 0.24943 0.245025
192 1 0.871653 0.188128 0.187602
349 1 0.863839 0.245382 0.249847
223 1 0.928805 0.24322 0.190399
196 1 0.00638089 0.304093 0.194423
325 1 0.122747 0.252123 0.248964
204 1 0.251137 0.303019 0.198025
208 1 0.375239 0.306386 0.195289
207 1 0.44044 0.251808 0.188424
334 1 0.436475 0.309422 0.244981
338 1 0.560755 0.308929 0.248034
341 1 0.623546 0.25736 0.238415
350 1 0.928323 0.307527 0.245479
326 1 0.184104 0.314362 0.247556
235 1 0.309167 0.359896 0.192948
365 1 0.377763 0.372851 0.24001
381 1 0.872673 0.36472 0.243155
361 1 0.244396 0.376687 0.24784
362 1 0.312538 0.42943 0.249233
239 1 0.444038 0.377483 0.189549
369 1 0.504159 0.378191 0.244716
373 1 0.622317 0.382828 0.242808
374 1 0.684715 0.434967 0.247888
378 1 0.820073 0.428487 0.246726
228 1 0.00806408 0.438711 0.188087
1289 1 0.252135 0.497126 0.240167
1293 1 0.382785 0.49876 0.242859
366 1 0.442189 0.442095 0.245795
244 1 0.507332 0.44399 0.189307
370 1 0.569767 0.446169 0.248584
1305 1 0.749905 0.497755 0.246329
1309 1 0.874673 0.49146 0.247725
1183 1 0.939693 0.495203 0.18894
258 1 0.0688507 0.0596422 0.252269
261 1 0.131574 0.00351353 0.251802
266 1 0.306276 0.0460806 0.251844
269 1 0.377991 0.000613638 0.254165
279 1 0.68822 0.00666259 0.304628
281 1 0.749946 0.00334469 0.254219
288 1 0.870671 0.0570161 0.306436
286 1 0.932312 0.0539806 0.252021
260 1 0.999904 0.0567259 0.311809
289 1 0.00936267 0.120872 0.257556
262 1 0.18626 0.0675439 0.256411
297 1 0.250613 0.120384 0.251719
299 1 0.312483 0.123704 0.311177
270 1 0.435211 0.0625756 0.251397
305 1 0.503146 0.1137 0.255986
280 1 0.623179 0.0656145 0.309032
284 1 0.747997 0.0682699 0.309269
317 1 0.873122 0.120332 0.250947
319 1 0.942973 0.117063 0.304088
290 1 0.0621588 0.180732 0.2514
293 1 0.125337 0.126885 0.253274
296 1 0.117727 0.182647 0.312323
294 1 0.191447 0.185984 0.250561
302 1 0.442173 0.178126 0.25189
311 1 0.686527 0.125171 0.299578
316 1 0.746734 0.185475 0.305088
315 1 0.810154 0.125744 0.304377
320 1 0.874685 0.184852 0.308408
329 1 0.252817 0.246315 0.259524
298 1 0.31646 0.192709 0.254647
333 1 0.374427 0.24755 0.251047
337 1 0.505332 0.244192 0.251145
339 1 0.569907 0.249147 0.30755
318 1 0.93717 0.189951 0.250712
351 1 0.924187 0.245958 0.310245
322 1 0.0671354 0.310944 0.257108
323 1 0.0664338 0.25312 0.31204
330 1 0.314556 0.308391 0.258856
336 1 0.382771 0.309013 0.309185
335 1 0.439683 0.253764 0.311102
340 1 0.503056 0.310698 0.302358
346 1 0.811731 0.309483 0.251593
321 1 0.995643 0.258091 0.261049
328 1 0.12686 0.316089 0.312101
359 1 0.18865 0.374462 0.311419
367 1 0.430142 0.374902 0.304916
344 1 0.623864 0.316937 0.303271
342 1 0.692425 0.314136 0.251883
377 1 0.75201 0.373029 0.251385
383 1 0.927826 0.36289 0.310229
353 1 0.993476 0.362828 0.253838
357 1 0.121396 0.382493 0.250714
371 1 0.564222 0.377742 0.305815
376 1 0.62856 0.431731 0.311974
375 1 0.689894 0.376221 0.311872
380 1 0.752178 0.43379 0.302739
384 1 0.881815 0.436224 0.308512
382 1 0.945759 0.429073 0.250792
354 1 0.0564375 0.438389 0.257016
358 1 0.185661 0.44189 0.250092
364 1 0.24764 0.446088 0.303865
368 1 0.374696 0.437523 0.304899
372 1 0.504078 0.437653 0.30431
1303 1 0.686114 0.495074 0.307523
1307 1 0.81823 0.492439 0.312235
386 1 0.0595963 0.0613269 0.374802
264 1 0.123789 0.0566702 0.315235
263 1 0.191547 0.00285158 0.312601
268 1 0.256785 0.0614361 0.317885
397 1 0.381599 0.00173822 0.373977
272 1 0.376433 0.0573891 0.313706
276 1 0.492377 0.0577923 0.314745
275 1 0.566478 0.00304715 0.314547
405 1 0.634698 0.00128836 0.372547
409 1 0.750206 0.000105262 0.369771
414 1 0.939808 0.0608268 0.374667
291 1 0.064648 0.117739 0.32103
303 1 0.429439 0.121495 0.314231
410 1 0.81861 0.072592 0.371451
445 1 0.885643 0.121707 0.367012
417 1 0.995256 0.121656 0.372088
292 1 0.00723293 0.186641 0.316857
295 1 0.188524 0.129513 0.316078
300 1 0.252063 0.183434 0.320492
308 1 0.495685 0.184791 0.314191
307 1 0.553416 0.12947 0.31557
437 1 0.610571 0.12773 0.373126
441 1 0.75471 0.126969 0.372801
442 1 0.818646 0.184706 0.373486
446 1 0.938563 0.182959 0.369283
453 1 0.12629 0.247461 0.374778
327 1 0.184981 0.234427 0.317655
304 1 0.378642 0.188151 0.322808
465 1 0.502891 0.249397 0.366893
312 1 0.630566 0.188638 0.315781
343 1 0.692578 0.247666 0.316151
347 1 0.801214 0.245349 0.313983
324 1 0.00437586 0.312149 0.323941
450 1 0.0701674 0.306769 0.371903
332 1 0.237663 0.307399 0.317852
331 1 0.312326 0.251355 0.313255
469 1 0.620354 0.252121 0.371869
470 1 0.690911 0.306471 0.373093
352 1 0.866416 0.306523 0.318198
478 1 0.936573 0.299965 0.369978
485 1 0.122742 0.374007 0.37297
363 1 0.314247 0.369569 0.315923
466 1 0.565961 0.314848 0.368456
501 1 0.628022 0.372425 0.370276
348 1 0.748019 0.314403 0.316001
355 1 0.0622325 0.376593 0.315042
486 1 0.194747 0.429925 0.374925
494 1 0.433283 0.433079 0.369639
497 1 0.499283 0.376621 0.37022
498 1 0.563953 0.432516 0.37122
505 1 0.749492 0.37853 0.373599
379 1 0.810865 0.379733 0.315266
356 1 0.994991 0.431841 0.320506
360 1 0.124555 0.438468 0.312835
1417 1 0.250572 0.497821 0.372234
502 1 0.684999 0.440873 0.37256
1433 1 0.750892 0.496936 0.373658
1311 1 0.947961 0.497728 0.313631
390 1 0.195046 0.0533483 0.381471
394 1 0.318602 0.0592673 0.376436
404 1 0.498341 0.0542794 0.433915
402 1 0.56554 0.0587548 0.379032
408 1 0.625922 0.0505772 0.43748
411 1 0.810855 0.00251141 0.432402
413 1 0.872013 0.000710839 0.377163
419 1 0.063608 0.119656 0.433128
421 1 0.128448 0.112131 0.38318
423 1 0.186371 0.118353 0.435693
425 1 0.256675 0.116932 0.378763
429 1 0.373407 0.12035 0.375474
398 1 0.429089 0.0646771 0.384371
433 1 0.491828 0.112962 0.37957
406 1 0.683656 0.0739386 0.383853
412 1 0.753824 0.0668216 0.432131
443 1 0.819888 0.123674 0.433168
447 1 0.937297 0.122487 0.435029
388 1 0.999022 0.0650367 0.437472
424 1 0.12299 0.177063 0.434808
422 1 0.182115 0.179044 0.379185
426 1 0.316379 0.185109 0.380873
427 1 0.316806 0.125678 0.437419
432 1 0.380484 0.178655 0.436521
430 1 0.440321 0.185749 0.377345
438 1 0.693374 0.180057 0.376757
448 1 0.875241 0.180801 0.432566
420 1 0.993037 0.186022 0.430426
418 1 0.0587475 0.187791 0.380533
455 1 0.188871 0.244793 0.4352
428 1 0.250282 0.192981 0.432069
461 1 0.376297 0.247239 0.375914
434 1 0.560275 0.19149 0.377637
440 1 0.624301 0.187554 0.43264
473 1 0.751642 0.246338 0.380719
477 1 0.875303 0.249278 0.384549
449 1 0.00592585 0.251944 0.380665
457 1 0.243332 0.253554 0.376341
459 1 0.308197 0.25294 0.436535
462 1 0.439597 0.312267 0.375953
463 1 0.43534 0.25757 0.437415
476 1 0.746161 0.309991 0.433315
474 1 0.806842 0.304008 0.376291
454 1 0.182032 0.315809 0.381194
458 1 0.316079 0.315557 0.376278
493 1 0.373696 0.372726 0.377031
499 1 0.560176 0.369348 0.435885
503 1 0.685708 0.370066 0.429096
507 1 0.810045 0.373848 0.436238
511 1 0.929459 0.367867 0.434988
481 1 0.991791 0.371883 0.377889
484 1 0.00455389 0.435006 0.435474
483 1 0.0709557 0.384965 0.435286
489 1 0.26203 0.378902 0.377694
495 1 0.439564 0.379089 0.437039
500 1 0.503854 0.434412 0.431101
504 1 0.616537 0.434117 0.431326
509 1 0.867583 0.379457 0.376424
482 1 0.0692605 0.437834 0.375238
1415 1 0.188488 0.496176 0.431538
492 1 0.252481 0.437676 0.432956
490 1 0.32138 0.442061 0.376338
1423 1 0.438458 0.493481 0.429477
1429 1 0.625506 0.493093 0.375367
508 1 0.752639 0.442409 0.435033
506 1 0.813297 0.440525 0.375824
512 1 0.869885 0.444142 0.435129
510 1 0.937439 0.438103 0.383725
392 1 0.124352 0.0555787 0.444376
518 1 0.187141 0.0606873 0.499572
396 1 0.250804 0.0554076 0.442184
395 1 0.315477 0.00654733 0.444182
399 1 0.434645 0.00498391 0.446456
403 1 0.559515 0.00486373 0.446324
537 1 0.754176 0.0127388 0.493977
416 1 0.871884 0.0622633 0.438245
541 1 0.86641 0.00486867 0.495981
400 1 0.373025 0.0658836 0.444504
431 1 0.4472 0.117331 0.450985
573 1 0.879743 0.124113 0.497502
546 1 0.0592668 0.176228 0.493375
435 1 0.556758 0.125556 0.443367
439 1 0.684831 0.12623 0.444791
569 1 0.757748 0.126141 0.497266
451 1 0.0572163 0.245602 0.441016
550 1 0.182005 0.188304 0.494658
554 1 0.318306 0.18858 0.496547
436 1 0.496496 0.190854 0.439245
562 1 0.572581 0.191682 0.497473
471 1 0.683948 0.249347 0.440422
444 1 0.748578 0.187939 0.438451
570 1 0.811086 0.189786 0.496001
574 1 0.931918 0.192308 0.499116
479 1 0.937441 0.248663 0.444016
452 1 0.0025792 0.31145 0.441644
456 1 0.122978 0.308057 0.443398
585 1 0.250592 0.254577 0.495553
464 1 0.371112 0.310734 0.440809
593 1 0.495545 0.262042 0.497835
467 1 0.560578 0.2528 0.440982
475 1 0.804656 0.251781 0.439609
480 1 0.873268 0.308441 0.443593
613 1 0.12449 0.372737 0.49883
460 1 0.242958 0.314689 0.438441
491 1 0.315449 0.373463 0.439951
468 1 0.49755 0.315121 0.438307
594 1 0.568099 0.312899 0.498928
629 1 0.620688 0.374828 0.49358
472 1 0.631164 0.315034 0.440436
633 1 0.748925 0.372783 0.495581
637 1 0.874645 0.37497 0.494798
609 1 0.00375664 0.377313 0.494472
614 1 0.190538 0.434773 0.497795
487 1 0.186106 0.380935 0.439828
621 1 0.370244 0.380066 0.499574
622 1 0.439866 0.433159 0.498257
626 1 0.562767 0.435932 0.491747
630 1 0.685642 0.427949 0.494733
638 1 0.933292 0.435899 0.488748
488 1 0.129551 0.437534 0.442691
1545 1 0.244106 0.499674 0.492665
496 1 0.37628 0.446418 0.441521
1553 1 0.494672 0.496054 0.489233
1557 1 0.628021 0.495618 0.49334
1431 1 0.691711 0.498502 0.437775
1565 1 0.869257 0.498171 0.495924
514 1 0.0516831 0.0612918 0.500825
525 1 0.380225 0.00658889 0.507789
529 1 0.501174 0.00410633 0.516042
530 1 0.562056 0.0600841 0.509043
535 1 0.68533 0.00293834 0.55869
542 1 0.929122 0.0606039 0.501611
520 1 0.119713 0.0634228 0.562049
549 1 0.118587 0.119818 0.503141
553 1 0.247888 0.124451 0.503448
522 1 0.309263 0.0650547 0.503196
526 1 0.441847 0.0660913 0.519477
565 1 0.620768 0.123821 0.501918
534 1 0.685582 0.0632328 0.500199
538 1 0.812371 0.0664825 0.504836
516 1 0.992213 0.0671958 0.558104
551 1 0.180871 0.129651 0.556151
556 1 0.245468 0.186184 0.557471
555 1 0.313584 0.12707 0.555235
557 1 0.383818 0.127668 0.501918
561 1 0.50448 0.135546 0.506846
566 1 0.685387 0.186897 0.503653
571 1 0.817852 0.129362 0.55829
545 1 0.991613 0.125874 0.506526
579 1 0.0587777 0.249218 0.559811
552 1 0.125719 0.189897 0.559242
581 1 0.125733 0.248489 0.501795
583 1 0.190396 0.244678 0.555013
587 1 0.30762 0.247702 0.556898
558 1 0.441585 0.189257 0.511901
601 1 0.745499 0.248457 0.502589
548 1 0.993375 0.190723 0.561474
577 1 0.998309 0.246039 0.501001
582 1 0.178316 0.310209 0.500752
589 1 0.382364 0.252304 0.501101
595 1 0.570578 0.251926 0.560553
600 1 0.627058 0.310845 0.561041
597 1 0.632638 0.253575 0.503897
602 1 0.814033 0.308166 0.511101
605 1 0.878884 0.252494 0.501712
578 1 0.0587194 0.313171 0.506656
586 1 0.31066 0.314345 0.501117
590 1 0.429622 0.321091 0.500373
625 1 0.509236 0.374966 0.50507
596 1 0.514964 0.314085 0.562326
598 1 0.685289 0.319784 0.502989
606 1 0.935942 0.314066 0.502337
612 1 0.000843147 0.437115 0.556517
617 1 0.252824 0.376227 0.50303
632 1 0.625886 0.43358 0.561181
634 1 0.818715 0.43144 0.501948
610 1 0.0656879 0.44326 0.503463
1541 1 0.135037 0.49284 0.506699
618 1 0.308322 0.438513 0.500908
1549 1 0.378233 0.496562 0.507304
1555 1 0.55532 0.493331 0.558434
1559 1 0.68592 0.499014 0.555903
636 1 0.749571 0.438084 0.554036
1563 1 0.807193 0.496623 0.55878
640 1 0.8763 0.442261 0.561177
1567 1 0.936413 0.498999 0.545627
642 1 0.0631058 0.0588628 0.618398
646 1 0.185651 0.0621546 0.619082
649 1 0.250471 0.0122185 0.618818
523 1 0.312728 0.00360784 0.566342
528 1 0.375053 0.0585011 0.573415
527 1 0.438248 0.00167018 0.571951
531 1 0.561982 0.00473953 0.575541
536 1 0.624757 0.0595792 0.564703
662 1 0.685047 0.0567746 0.622017
540 1 0.747256 0.0613241 0.563679
670 1 0.934565 0.055672 0.620574
641 1 0.99773 0.000504966 0.621065
677 1 0.12358 0.124889 0.619006
524 1 0.249254 0.068586 0.562504
532 1 0.503003 0.0691923 0.574913
563 1 0.565837 0.124183 0.568091
567 1 0.684496 0.119757 0.56745
666 1 0.810021 0.0707002 0.624445
544 1 0.872958 0.0638548 0.5639
547 1 0.0599991 0.127319 0.562528
674 1 0.0636038 0.185971 0.623768
681 1 0.250777 0.128002 0.616337
682 1 0.318308 0.180312 0.619815
559 1 0.448236 0.128084 0.573216
693 1 0.627773 0.128475 0.622836
694 1 0.688303 0.182275 0.622205
572 1 0.758123 0.187286 0.564108
701 1 0.875353 0.127146 0.619744
575 1 0.93372 0.132255 0.565264
673 1 0.990803 0.125282 0.621477
678 1 0.184359 0.188436 0.61636
713 1 0.256258 0.241236 0.619368
560 1 0.377673 0.193429 0.565369
564 1 0.504948 0.189748 0.570478
568 1 0.621513 0.190899 0.565898
599 1 0.687682 0.245194 0.563892
603 1 0.811846 0.246644 0.568558
576 1 0.875003 0.19099 0.563659
702 1 0.938365 0.190859 0.619821
709 1 0.115041 0.252845 0.621023
588 1 0.245248 0.307774 0.564512
592 1 0.368843 0.304345 0.564459
591 1 0.443969 0.253039 0.568154
725 1 0.629179 0.250059 0.621725
726 1 0.68845 0.304132 0.624259
604 1 0.750831 0.303916 0.570847
607 1 0.938438 0.251588 0.563516
705 1 0.999251 0.253137 0.622473
706 1 0.0553909 0.314953 0.621303
584 1 0.125341 0.319096 0.568147
745 1 0.251279 0.37029 0.624757
619 1 0.318961 0.371454 0.565862
623 1 0.447143 0.370452 0.563078
753 1 0.504198 0.370678 0.624328
722 1 0.573866 0.312555 0.624053
635 1 0.815022 0.370086 0.564916
608 1 0.87631 0.315357 0.567628
580 1 0.990212 0.318298 0.567156
611 1 0.0528321 0.375625 0.564828
615 1 0.185878 0.375906 0.567227
620 1 0.256875 0.43437 0.570445
624 1 0.375638 0.431063 0.570448
628 1 0.495568 0.434567 0.565567
627 1 0.566136 0.376899 0.566578
631 1 0.690702 0.377461 0.563714
761 1 0.745679 0.380492 0.621857
639 1 0.93391 0.379408 0.564531
1665 1 0.00396555 0.499666 0.62456
616 1 0.117361 0.440008 0.569871
1543 1 0.184825 0.496603 0.568555
1677 1 0.381197 0.496771 0.620158
1551 1 0.439709 0.492849 0.563701
1681 1 0.503604 0.494553 0.623182
762 1 0.818542 0.44267 0.624739
766 1 0.940984 0.449494 0.617344
643 1 0.0644451 0.000638182 0.676149
651 1 0.304167 0.00454832 0.687394
654 1 0.440033 0.0591026 0.630471
672 1 0.872852 0.0598258 0.686402
671 1 0.936012 0.00191612 0.68478
675 1 0.071091 0.122126 0.679437
648 1 0.131805 0.0628976 0.674677
679 1 0.185395 0.121339 0.680089
652 1 0.24486 0.0635093 0.680825
650 1 0.30875 0.068875 0.626637
685 1 0.376516 0.123022 0.62881
656 1 0.372259 0.0639265 0.685215
687 1 0.435278 0.122654 0.684283
658 1 0.569666 0.0644908 0.634159
697 1 0.746177 0.123323 0.627926
644 1 0.999951 0.063809 0.680012
676 1 0.00306637 0.183107 0.683989
684 1 0.244379 0.182335 0.674346
689 1 0.50242 0.132456 0.632464
699 1 0.815282 0.125522 0.681729
707 1 0.057931 0.244604 0.682454
680 1 0.129521 0.189508 0.67721
717 1 0.371399 0.249089 0.628218
686 1 0.432356 0.193258 0.631297
721 1 0.50399 0.247126 0.631277
690 1 0.56707 0.194255 0.62591
727 1 0.688778 0.242053 0.68283
729 1 0.75251 0.243704 0.628994
698 1 0.809439 0.189688 0.630769
733 1 0.876296 0.249231 0.631346
710 1 0.179388 0.307591 0.631241
716 1 0.243117 0.312354 0.686746
714 1 0.307143 0.304146 0.629255
730 1 0.812907 0.309855 0.630313
734 1 0.932797 0.308033 0.629403
749 1 0.369502 0.365456 0.629268
718 1 0.438054 0.314434 0.627686
755 1 0.560058 0.368526 0.684769
759 1 0.690035 0.374198 0.686075
765 1 0.880827 0.372784 0.628368
737 1 0.99158 0.374975 0.633446
738 1 0.0524568 0.431799 0.628294
741 1 0.130797 0.380387 0.631217
742 1 0.192274 0.43469 0.626437
748 1 0.249047 0.43226 0.685242
746 1 0.316958 0.436271 0.627566
750 1 0.438583 0.426196 0.62628
754 1 0.56261 0.429506 0.626882
757 1 0.633248 0.380656 0.625575
760 1 0.622297 0.436371 0.686418
763 1 0.80927 0.378722 0.677741
1667 1 0.0617157 0.498945 0.684707
1671 1 0.186656 0.49553 0.684777
1673 1 0.250682 0.499787 0.629597
1679 1 0.433019 0.493006 0.682942
1683 1 0.566541 0.497116 0.685102
1685 1 0.626255 0.49923 0.631662
758 1 0.686633 0.439016 0.626263
764 1 0.75258 0.444869 0.675011
770 1 0.0611747 0.0569511 0.739837
782 1 0.439994 0.0607828 0.744092
786 1 0.559547 0.0597825 0.749619
794 1 0.814972 0.0505319 0.746049
798 1 0.936537 0.0597433 0.745638
805 1 0.127403 0.124188 0.74311
774 1 0.1853 0.0642623 0.739385
683 1 0.311232 0.121013 0.69312
660 1 0.503695 0.0690021 0.689954
664 1 0.633174 0.0669826 0.693976
668 1 0.741731 0.0669483 0.689179
703 1 0.931025 0.121629 0.689266
801 1 0.00634142 0.128417 0.743779
802 1 0.0679135 0.186357 0.742443
806 1 0.181873 0.187404 0.743162
809 1 0.242739 0.129675 0.749079
691 1 0.561034 0.127572 0.69717
696 1 0.623866 0.187233 0.687543
695 1 0.687239 0.127296 0.692218
700 1 0.751455 0.182239 0.695584
711 1 0.186955 0.249887 0.687878
715 1 0.304403 0.242626 0.689652
688 1 0.377675 0.188078 0.692522
692 1 0.496218 0.195349 0.694034
723 1 0.560899 0.247851 0.689425
822 1 0.687631 0.188479 0.749144
857 1 0.751283 0.245143 0.74942
731 1 0.811571 0.249101 0.688182
704 1 0.878693 0.19073 0.687783
830 1 0.943896 0.188412 0.747182
834 1 0.0640057 0.298661 0.747669
712 1 0.125757 0.302167 0.694781
842 1 0.307666 0.307779 0.749147
720 1 0.368473 0.30792 0.688299
719 1 0.435183 0.252387 0.69664
732 1 0.742888 0.309152 0.692709
858 1 0.803889 0.311563 0.744833
736 1 0.871195 0.307778 0.69611
735 1 0.945261 0.251611 0.689646
833 1 0.998268 0.255476 0.748645
739 1 0.0555253 0.373272 0.69003
747 1 0.305461 0.36935 0.687703
877 1 0.373418 0.369101 0.749074
751 1 0.442679 0.372112 0.690283
724 1 0.499592 0.313346 0.690745
728 1 0.629231 0.317453 0.691637
708 1 0.99543 0.316267 0.692107
869 1 0.114582 0.37631 0.745478
744 1 0.128777 0.437255 0.690973
743 1 0.186536 0.375696 0.689426
752 1 0.3768 0.427642 0.687904
881 1 0.499283 0.381733 0.745387
882 1 0.564433 0.435118 0.745067
885 1 0.627371 0.379598 0.747305
886 1 0.691696 0.434425 0.745667
889 1 0.750129 0.375591 0.746277
893 1 0.863904 0.378136 0.747692
767 1 0.927796 0.377346 0.691459
1801 1 0.245092 0.492975 0.744655
756 1 0.503498 0.439503 0.688584
1813 1 0.622461 0.498635 0.749659
1687 1 0.685607 0.497529 0.691589
768 1 0.881151 0.449646 0.691123
740 1 0.994592 0.440594 0.694392
771 1 0.0620589 0.000642639 0.809918
778 1 0.314812 0.0605525 0.750786
781 1 0.379581 0.0104306 0.751738
790 1 0.689807 0.0588186 0.755391
800 1 0.878906 0.0561901 0.812368
803 1 0.065967 0.122059 0.796591
813 1 0.374222 0.116577 0.752042
815 1 0.431959 0.119977 0.80783
825 1 0.746686 0.123091 0.75632
808 1 0.123213 0.185351 0.811193
812 1 0.253203 0.185459 0.810444
810 1 0.31715 0.183778 0.756833
814 1 0.43661 0.182876 0.753778
817 1 0.499626 0.130401 0.754332
819 1 0.5608 0.13226 0.80927
821 1 0.626556 0.127731 0.75091
823 1 0.684019 0.129285 0.811288
826 1 0.812619 0.186999 0.750097
829 1 0.875738 0.130676 0.750921
831 1 0.93443 0.131999 0.810173
837 1 0.128787 0.247306 0.757352
841 1 0.25172 0.245236 0.752582
845 1 0.375372 0.248956 0.758241
820 1 0.497419 0.191721 0.812484
818 1 0.562129 0.19219 0.751631
828 1 0.745838 0.188857 0.809631
832 1 0.876665 0.189623 0.811138
861 1 0.88024 0.248887 0.750923
804 1 0.995355 0.191736 0.809703
840 1 0.120831 0.311825 0.810076
838 1 0.188945 0.30574 0.751122
846 1 0.431953 0.30929 0.761215
849 1 0.500737 0.253691 0.756992
850 1 0.56607 0.308718 0.754787
853 1 0.627122 0.252379 0.753433
854 1 0.685972 0.310595 0.755741
855 1 0.683941 0.251178 0.809024
864 1 0.86503 0.310463 0.803324
863 1 0.937587 0.25016 0.810109
836 1 0.997695 0.310954 0.811148
865 1 0.0019842 0.374922 0.754674
887 1 0.691487 0.374294 0.808702
862 1 0.939338 0.316615 0.755827
871 1 0.184025 0.381119 0.810785
870 1 0.18577 0.433248 0.750072
873 1 0.244431 0.379524 0.752451
874 1 0.311975 0.429771 0.75728
878 1 0.436909 0.43081 0.752917
883 1 0.562037 0.37703 0.810867
891 1 0.804465 0.378973 0.808315
894 1 0.935189 0.426938 0.751844
866 1 0.0688088 0.449982 0.750503
1797 1 0.128366 0.499426 0.751568
880 1 0.379886 0.438259 0.812177
1809 1 0.501622 0.497918 0.753631
892 1 0.748637 0.444372 0.806345
890 1 0.822784 0.448981 0.750552
1819 1 0.807652 0.499447 0.811429
898 1 0.0683417 0.0601887 0.863433
905 1 0.246905 0.00444005 0.867507
779 1 0.306965 0.00326882 0.813796
784 1 0.375978 0.0590512 0.817769
913 1 0.497748 0.00101846 0.874714
787 1 0.5609 0.0104794 0.816035
917 1 0.622114 0.00465554 0.870299
791 1 0.686803 0.0071297 0.819691
795 1 0.815889 0.000821992 0.814446
772 1 0.995468 0.0614437 0.813124
776 1 0.132472 0.0690311 0.815755
780 1 0.232075 0.0673487 0.812845
811 1 0.319967 0.117783 0.818982
941 1 0.378678 0.118094 0.872568
788 1 0.50021 0.0664227 0.814709
914 1 0.565318 0.0677903 0.872317
792 1 0.626465 0.0681891 0.814563
796 1 0.751381 0.0652843 0.818325
957 1 0.876846 0.120156 0.868823
929 1 0.00604078 0.125453 0.863728
807 1 0.182853 0.134864 0.816206
816 1 0.380744 0.185014 0.819695
945 1 0.500547 0.125056 0.87454
949 1 0.626715 0.127497 0.874241
827 1 0.812292 0.137481 0.817753
930 1 0.0604585 0.192383 0.869358
839 1 0.188807 0.244158 0.817176
843 1 0.305881 0.249463 0.818492
973 1 0.37334 0.247842 0.872465
946 1 0.562204 0.194209 0.873214
824 1 0.621724 0.193927 0.817677
958 1 0.93218 0.192957 0.873572
835 1 0.0612726 0.25424 0.813646
962 1 0.0628802 0.312134 0.871695
844 1 0.245805 0.311915 0.813093
848 1 0.368409 0.310829 0.817153
847 1 0.444417 0.254152 0.823835
851 1 0.564344 0.251338 0.813637
856 1 0.627298 0.307908 0.816462
982 1 0.686104 0.312114 0.874491
985 1 0.741061 0.252169 0.868995
859 1 0.806521 0.250156 0.814319
997 1 0.127667 0.374701 0.874248
966 1 0.180682 0.313298 0.867299
1001 1 0.239905 0.36939 0.870937
875 1 0.309142 0.367087 0.816461
879 1 0.445404 0.372139 0.814777
852 1 0.503857 0.315916 0.812622
978 1 0.563023 0.313852 0.874357
1013 1 0.627075 0.373657 0.870603
860 1 0.746953 0.314216 0.814943
1017 1 0.747079 0.373603 0.871857
986 1 0.810209 0.312873 0.87027
1021 1 0.869795 0.371912 0.871306
990 1 0.943797 0.314958 0.874716
867 1 0.0587216 0.388501 0.814294
993 1 0.00469913 0.383082 0.874541
876 1 0.25212 0.433939 0.817533
884 1 0.503517 0.435723 0.817868
888 1 0.624912 0.43358 0.816013
895 1 0.932062 0.380094 0.81777
872 1 0.128451 0.43856 0.815695
1799 1 0.187248 0.493837 0.817243
1803 1 0.313671 0.498369 0.818954
1807 1 0.439763 0.497801 0.813285
1010 1 0.563802 0.442459 0.873654
1014 1 0.689893 0.44201 0.872939
1945 1 0.749445 0.497589 0.86808
896 1 0.872342 0.438478 0.818683
868 1 0.990339 0.439463 0.813838
901 1 0.124796 0.00223116 0.881494
910 1 0.438107 0.0603861 0.880961
915 1 0.55996 0.00289717 0.932054
924 1 0.749941 0.0567691 0.927481
922 1 0.816224 0.0602372 0.876274
925 1 0.883949 0.00399083 0.878797
900 1 0.00819659 0.0711568 0.927789
902 1 0.184854 0.0652885 0.88207