LAMMPS (15 Sep 2022)
OMP_NUM_THREADS environment is not set. Defaulting to 1 thread. (src/comm.cpp:98)
  using 1 OpenMP thread(s) per MPI task
# 3d WCA system, random initial configuration

#variable density equal 0.5
variable initial_temperature equal 3.0
variable final_temperature equal 0.1
variable dt equal 0.01
variable tau equal 100*${dt}
variable tau equal 100*0.01
variable thermo_time equal 50000*${dt}
variable thermo_time equal 50000*0.01
variable equil_steps equal 50000
variable run_steps equal 100000

units           lj
atom_style      atomic
dimension       3

lattice         fcc ${density}
lattice         fcc 0.9
Lattice spacing in x,y,z = 1.6441414 1.6441414 1.6441414
region          box block 0 8 0 8 0 8
# number of atom types
create_box      1 box
Created orthogonal box = (0 0 0) to (13.153131 13.153131 13.153131)
  2 by 1 by 2 MPI processor grid
create_atoms    1 box
Created 2048 atoms
  using lattice units in orthogonal box = (0 0 0) to (13.153131 13.153131 13.153131)
  create_atoms CPU = 0.001 seconds
mass 1 1.0

velocity all create ${initial_temperature} 99999
velocity all create 3 99999

pair_style      lj/cut 1.0
#type_1 type_2 epsilon sigma cutoff
pair_coeff      1 1 10.0 0.89089871814 1.0
pair_modify shift yes

timestep ${dt}
timestep 0.01
thermo ${thermo_time}
thermo 500

fix 1 all nvt temp ${initial_temperature} ${initial_temperature} ${tau}
fix 1 all nvt temp 3 ${initial_temperature} ${tau}
fix 1 all nvt temp 3 3 ${tau}
fix 1 all nvt temp 3 3 1
run ${equil_steps}
run 50000
Generated 0 of 0 mixed pair_coeff terms from geometric mixing rule
Neighbor list info ...
  update: every = 1 steps, delay = 0 steps, check = yes
  max neighbors/atom: 2000, page size: 100000
  master list distance cutoff = 1.3
  ghost atom cutoff = 1.3
  binsize = 0.65, bins = 21 21 21
  1 neighbor lists, perpetual/occasional/extra = 1 0 0
  (1) pair lj/cut, perpetual
      attributes: half, newton on
      pair build: half/bin/atomonly/newton
      stencil: half/bin/3d
      bin: standard
Per MPI rank memory allocation (min/avg/max) = 3.103 | 3.103 | 3.103 Mbytes
   Step          Temp          E_pair         E_mol          TotEng         Press     
         0   3              0              0              4.4978027      2.6986816    
       500   3.0498679      1.4433268      0              6.0158948      18.451102    
      1000   3.0940626      1.278864       0              5.9176917      17.367775    
      1500   2.9878814      1.3596062      0              5.8392398      18.028012    
      2000   3.0537676      1.2897163      0              5.868131       17.410451    
      2500   3.0125658      1.3537879      0              5.8704302      17.942518    
      3000   3.0770487      1.4085643      0              6.0218836      18.351375    
      3500   3.0154973      1.2873819      0              5.8084192      17.273952    
      4000   3.0602521      1.347438       0              5.9355748      17.876366    
      4500   2.987718       1.3574887      0              5.8368774      17.776879    
      5000   3.040808       1.4250211      0              5.984006       18.480431    
      5500   3.0755768      1.3187038      0              5.9298164      17.833931    
      6000   2.9693299      1.3202291      0              5.7720492      17.768428    
      6500   2.9366819      1.3346678      0              5.7375398      17.356637    
      7000   3.0415411      1.1912088      0              5.7512927      16.764797    
      7500   2.9102603      1.4011592      0              5.764418       18.249982    
      8000   3.0169         1.2693555      0              5.7924957      17.056808    
      8500   2.9881956      1.3129392      0              5.7930439      17.565127    
      9000   3.0239874      1.3053676      0              5.8391338      17.477709    
      9500   3.0210134      1.3437725      0              5.8730799      17.832099    
     10000   3.0910479      1.3240404      0              5.9583484      17.691079    
     10500   3.0573051      1.3223058      0              5.9060242      17.827939    
     11000   2.9751237      1.3820542      0              5.8425607      17.954925    
     11500   2.9258587      1.3996122      0              5.7862572      18.171021    
     12000   2.945685       1.2710751      0              5.6874451      17.261617    
     12500   2.9741573      1.3191267      0              5.7781843      17.629537    
     13000   3.0272658      1.2228601      0              5.7615415      16.698762    
     13500   3.025415       1.2875304      0              5.8234371      17.376835    
     14000   2.9165194      1.3722392      0              5.7448822      17.937673    
     14500   3.0047288      1.3278508      0              5.8327432      17.783405    
     15000   3.1020934      1.3325162      0              5.9833842      17.732577    
     15500   3.0082469      1.2976587      0              5.8078257      17.342804    
     16000   3.0484877      1.3250777      0              5.8955765      17.581838    
     16500   2.9747015      1.2768366      0              5.73671        17.211898    
     17000   2.971554       1.2757533      0              5.7309079      17.130422    
     17500   2.9092418      1.3840765      0              5.7458084      17.842774    
     18000   3.0204469      1.289838       0              5.8182962      17.382754    
     18500   3.0135054      1.3751189      0              5.8931698      17.929015    
     19000   3.0446436      1.3316205      0              5.896356       17.841742    
     19500   3.0684646      1.2666828      0              5.8671323      17.222295    
     20000   3.0961353      1.2464171      0              5.8883523      17.399576    
     20500   3.1345447      1.2906868      0              5.990208       17.356271    
     21000   3.0827253      1.3143133      0              5.9361434      17.682626    
     21500   3.0357843      1.3593001      0              5.9107532      17.970355    
     22000   3.1020787      1.3777039      0              6.0285499      17.980663    
     22500   3.0102326      1.333591       0              5.8467352      17.660112    
     23000   3.1271389      1.3185464      0              6.0069643      17.67601     
     23500   2.9870246      1.2229085      0              5.7012576      17.030355    
     24000   2.9960132      1.3436657      0              5.8354912      17.854643    
     24500   3.0538574      1.3122284      0              5.8907778      17.591584    
     25000   2.9798133      1.3387364      0              5.8062739      17.59501     
     25500   3.0201015      1.3327579      0              5.8606983      17.609621    
     26000   3.0240774      1.4084987      0              5.9423998      18.336177    
     26500   3.0608582      1.370317       0              5.9593625      18.189956    
     27000   3.0417968      1.3396962      0              5.9001636      17.94334     
     27500   3.0020065      1.277944       0              5.778755       17.338376    
     28000   2.9322329      1.3416152      0              5.737817       17.736982    
     28500   2.9539532      1.3036585      0              5.7324247      17.442238    
     29000   3.016833       1.3029986      0              5.8260385      17.375655    
     29500   3.0174136      1.3676664      0              5.8915768      17.886036    
     30000   3.0624675      1.3471185      0              5.9385768      17.985147    
     30500   2.9872289      1.3580944      0              5.8367498      17.944106    
     31000   2.9472936      1.2947573      0              5.713539       17.300577    
     31500   2.9917927      1.3047649      0              5.7902626      17.482206    
     32000   2.9652293      1.2774027      0              5.7230748      17.203504    
     32500   3.0027401      1.2606504      0              5.7625614      16.984709    
     33000   2.9559427      1.3668946      0              5.7986437      17.911516    
     33500   2.9441778      1.3005512      0              5.7146615      17.474201    
     34000   2.9677226      1.3325409      0              5.7819511      17.732563    
     34500   2.9798166      1.3419462      0              5.8094887      17.729253    
     35000   2.9353065      1.3837846      0              5.7845944      18.085473    
     35500   2.8881823      1.3842425      0              5.7144006      17.975022    
     36000   2.9690034      1.3461707      0              5.7975013      17.870943    
     36500   2.9657854      1.3405088      0              5.7870147      17.857521    
     37000   3.0249571      1.3427331      0              5.8779532      17.706842    
     37500   3.1244754      1.2828565      0              5.9672811      17.379023    
     38000   3.024446       1.4092325      0              5.9436862      18.370127    
     38500   2.9943583      1.335523       0              5.8248674      17.810556    
     39000   2.8647188      1.42721        0              5.72219        18.348581    
     39500   2.9441348      1.3471714      0              5.7612172      17.841271    
     40000   3.028304       1.2696762      0              5.8099142      17.416804    
     40500   2.978324       1.3535138      0              5.8188184      17.85578     
     41000   3.0920665      1.3480586      0              5.9838936      17.966335    
     41500   2.9068591      1.3445886      0              5.7027482      17.554234    
     42000   3.0597787      1.2677268      0              5.8551538      17.10565     
     42500   3.0428729      1.3622803      0              5.924361       17.825322    
     43000   3.0300065      1.3536251      0              5.8964157      17.864461    
     43500   3.038293       1.3367681      0              5.8919822      17.702101    
     44000   3.0222484      1.3153964      0              5.8465555      17.578641    
     44500   3.0940489      1.3500471      0              5.9888543      17.879691    
     45000   2.9539323      1.3465012      0              5.7752361      17.726961    
     45500   2.9600642      1.3061545      0              5.7440828      17.336439    
     46000   3.0762439      1.2869228      0              5.8990356      17.237033    
     46500   2.9801236      1.3434444      0              5.811447       17.654858    
     47000   2.9565758      1.2661957      0              5.6988941      17.19162     
     47500   3.0144513      1.2298334      0              5.7493026      16.816555    
     48000   2.9986749      1.3045271      0              5.8003432      17.459755    
     48500   2.9972147      1.3648841      0              5.858511       17.931499    
     49000   3.0682044      1.3699265      0              5.9699859      17.927363    
     49500   2.9294565      1.3218213      0              5.7138606      17.489641    
     50000   2.9447175      1.3885889      0              5.8035083      18.105485    
Loop time of 7.95557 on 4 procs for 50000 steps with 2048 atoms

Performance: 5430159.064 tau/day, 6284.906 timesteps/s, 12.871 Matom-step/s
99.2% CPU use with 4 MPI tasks x 1 OpenMP threads

MPI task timing breakdown:
Section |  min time  |  avg time  |  max time  |%varavg| %total
---------------------------------------------------------------
Pair    | 1.0317     | 1.0369     | 1.0439     |   0.5 | 13.03
Neigh   | 4.8245     | 4.8402     | 4.8503     |   0.5 | 60.84
Comm    | 1.4207     | 1.4383     | 1.4586     |   1.1 | 18.08
Output  | 0.0018243  | 0.002382   | 0.0040477  |   2.0 |  0.03
Modify  | 0.40831    | 0.41091    | 0.4136     |   0.3 |  5.17
Other   |            | 0.2268     |            |       |  2.85

Nlocal:            512 ave         515 max         507 min
Histogram: 1 0 0 0 0 0 0 2 0 1
Nghost:         678.75 ave         686 max         671 min
Histogram: 1 0 1 0 0 0 0 0 1 1
Neighs:        2163.25 ave        2205 max        2122 min
Histogram: 1 0 0 1 0 1 0 0 0 1

Total # of neighbors = 8653
Ave neighs/atom = 4.2250977
Neighbor list builds = 20243
Dangerous builds = 0

unfix 1
dump           1 all atom ${run_steps} 3dWCA_T${final_temperature}_d${density}_N${run_steps}.lammpstrj
dump           1 all atom 100000 3dWCA_T${final_temperature}_d${density}_N${run_steps}.lammpstrj
dump           1 all atom 100000 3dWCA_T0.1_d${density}_N${run_steps}.lammpstrj
dump           1 all atom 100000 3dWCA_T0.1_d0.9_N${run_steps}.lammpstrj
dump           1 all atom 100000 3dWCA_T0.1_d0.9_N100000.lammpstrj
dump           2 all dcd ${thermo_time} 3dWCA_T${final_temperature}_d${density}_N${run_steps}.dcd
dump           2 all dcd 500 3dWCA_T${final_temperature}_d${density}_N${run_steps}.dcd
dump           2 all dcd 500 3dWCA_T0.1_d${density}_N${run_steps}.dcd
dump           2 all dcd 500 3dWCA_T0.1_d0.9_N${run_steps}.dcd
dump           2 all dcd 500 3dWCA_T0.1_d0.9_N100000.dcd
fix 1 all nvt temp ${initial_temperature} ${final_temperature} ${tau}
fix 1 all nvt temp 3 ${final_temperature} ${tau}
fix 1 all nvt temp 3 0.1 ${tau}
fix 1 all nvt temp 3 0.1 1

run ${run_steps}
run 100000
Generated 0 of 0 mixed pair_coeff terms from geometric mixing rule
Per MPI rank memory allocation (min/avg/max) = 3.177 | 3.178 | 3.178 Mbytes
   Step          Temp          E_pair         E_mol          TotEng         Press     
     50000   2.9447175      1.3885889      0              5.8035083      18.105485    
     50500   3.0126151      1.3401498      0              5.8568659      17.920101    
     51000   2.9208683      1.2935927      0              5.6727558      17.416948    
     51500   2.9614962      1.2671797      0              5.7072549      17.166058    
     52000   2.9446337      1.3010576      0              5.7158514      17.385133    
     52500   2.8832202      1.3575982      0              5.6803167      17.76737     
     53000   3.0363122      1.2603094      0              5.8125538      17.199986    
     53500   2.9080932      1.2011392      0              5.5611491      16.603104    
     54000   2.9463122      1.1882823      0              5.6055927      16.488874    
     54500   2.8415283      1.2926456      0              5.5528569      17.149748    
     55000   2.8047077      1.2892245      0              5.4942318      17.006521    
     55500   2.7775253      1.2379698      0              5.4022235      16.751923    
     56000   2.8468634      1.151179       0              5.419389       16.031865    
     56500   2.8112076      1.217208       0              5.4319605      16.593375    
     57000   2.8181889      1.2476544      0              5.4728736      16.697481    
     57500   2.6984653      1.3037822      0              5.3495038      17.209033    
     58000   2.8040312      1.1632999      0              5.3672929      16.041933    
     58500   2.7405088      1.1200123      0              5.2287683      15.620951    
     59000   2.7294398      1.2187476      0              5.3109082      16.428941    
     59500   2.7526659      1.2243899      0              5.3513727      16.702325    
     60000   2.672312       1.2101389      0              5.2166496      16.373756    
     60500   2.6656959      1.1247212      0              5.1213126      15.515456    
     61000   2.6637525      1.1883011      0              5.1819788      16.31885     
     61500   2.6998995      1.210232       0              5.2581038      16.474924    
     62000   2.6213092      1.2200557      0              5.1500997      16.561967    
     62500   2.6985571      1.156587       0              5.2024461      16.085284    
     63000   2.5781137      1.145342       0              5.0106243      15.78911     
     63500   2.6032055      1.1473299      0              5.0502315      15.899816    
     64000   2.5677494      1.1359535      0              4.985697       15.614987    
     64500   2.6234449      1.0551013      0              4.9883472      15.082235    
     65000   2.6132339      1.1166737      0              5.0346105      15.60736     
     65500   2.6313808      1.0746111      0              5.019755       15.15666     
     66000   2.4791411      1.1397841      0              4.85668        15.648995    
     66500   2.45727        1.0809819      0              4.7650871      15.019481    
     67000   2.4464598      1.1295176      0              4.7974154      15.457858    
     67500   2.4427605      1.1225488      0              4.7849004      15.422203    
     68000   2.4360323      0.98502074     0              4.637285       14.228226    
     68500   2.4376877      1.0381654      0              4.6929115      14.80976     
     69000   2.4495371      1.0489661      0              4.7214777      14.937882    
     69500   2.4687515      1.0824575      0              4.7837767      15.216928    
     70000   2.415829       1.0527538      0              4.674728       14.900772    
     70500   2.3962321      1.0271477      0              4.6197408      14.652638    
     71000   2.3511502      0.95101933     0              4.4760226      13.933658    
     71500   2.3603946      1.0053006      0              4.5441637      14.455641    
     72000   2.3399002      1.0210958      0              4.5292323      14.549269    
     72500   2.2664253      1.0504414      0              4.4484194      14.606649    
     73000   2.3021497      1.0222634      0              4.4738019      14.508675    
     73500   2.2911137      0.97622464     0              4.4112171      13.949591    
     74000   2.3347199      0.94239746     0              4.4427673      13.977772    
     74500   2.3219715      1.0165122      0              4.4977687      14.466077    
     75000   2.3354327      0.96827094     0              4.4697094      14.13399     
     75500   2.2696016      0.98011629     0              4.3828563      14.276671    
     76000   2.3263468      0.92335877     0              4.4111751      13.63052     
     76500   2.2254039      0.99469018     0              4.331166       14.260168    
     77000   2.2699858      0.95593457     0              4.3592507      13.924939    
     77500   2.2027511      0.91955492     0              4.2220682      13.48799     
     78000   2.1635486      0.98080832     0              4.2245465      13.857895    
     78500   2.1852388      0.96321097     0              4.2394686      13.920871    
     79000   2.0960722      0.98231864     0              4.1248918      13.834683    
     79500   2.0799719      0.91029895     0              4.0287335      13.416641    
     80000   2.034007       0.87682108     0              3.9263419      13.091694    
     80500   2.0667074      0.90678518     0              4.0053325      13.346753    
     81000   2.0735223      0.94502307     0              4.0537879      13.563137    
     81500   2.1153414      0.830673       0              4.0021358      12.549813    
     82000   2.0985233      0.81584366     0              3.9620916      12.504169    
     82500   2.0309954      0.87159527     0              3.9166008      12.82491     
     83000   2.018264       0.86915604     0              3.8950739      12.994476    
     83500   2.0134699      0.84951343     0              3.8682435      12.77477     
     84000   2.0273348      0.84926525     0              3.8887826      12.723889    
     84500   2.0195787      0.77127278     0              3.7991616      12.053763    
     85000   1.9854332      0.83927411     0              3.8159697      12.53826     
     85500   2.0151319      0.81530553     0              3.8365275      12.442726    
     86000   2.0012832      0.82992294     0              3.830382       12.65298     
     86500   1.9473753      0.81678788     0              3.7364245      12.319889    
     87000   1.8924283      0.76940699     0              3.6066634      11.908321    
     87500   1.8484634      0.77938013     0              3.5507214      11.897923    
     88000   1.837611       0.75130631     0              3.5063768      11.826642    
     88500   1.8624392      0.70759893     0              3.4998936      11.307679    
     89000   1.8712978      0.76863474     0              3.5742109      11.657365    
     89500   1.8673497      0.75892093     0              3.5585778      11.842662    
     90000   1.8526225      0.80462534     0              3.5822021      12.253278    
     90500   1.8020827      0.71968548     0              3.4214897      11.214641    
     91000   1.8215019      0.71815813     0              3.4490768      11.390175    
     91500   1.7919885      0.73002868     0              3.4166989      11.476708    
     92000   1.7704276      0.7564882      0              3.4108329      11.506821    
     92500   1.7913702      0.74044409     0              3.4261874      11.568916    
     93000   1.7777113      0.69952727     0              3.3647922      11.175122    
     93500   1.7433358      0.78397512     0              3.3977019      11.914873    
     94000   1.7974673      0.73023941     0              3.4251239      11.472881    
     94500   1.7174185      0.66034616     0              3.235216       10.774935    
     95000   1.692012       0.70756326     0              3.244342       11.119133    
     95500   1.7037898      0.68099765     0              3.2354345      10.922708    
     96000   1.6744097      0.70078655     0              3.2111747      10.93972     
     96500   1.6964355      0.63982609     0              3.1832369      10.513544    
     97000   1.6581797      0.67122031     0              3.1572754      10.711406    
     97500   1.6614635      0.6610438      0              3.1520221      10.614103    
     98000   1.6459105      0.68914531     0              3.1568056      10.99386     
     98500   1.6301895      0.63794436     0              3.0820347      10.375237    
     99000   1.6186978      0.66159192     0              3.088453       10.550359    
     99500   1.5857326      0.60111789     0              2.9785554      10.013302    
    100000   1.5151824      0.60238547     0              2.8740493      9.9584248    
    100500   1.5213181      0.59362757     0              2.8744905      9.8912006    
    101000   1.5170544      0.58246384     0              2.8569343      9.7864984    
    101500   1.4755735      0.60706798     0              2.8193476      9.9267071    
    102000   1.4607684      0.5885933      0              2.7786761      9.7782937    
    102500   1.4841369      0.56623529     0              2.7913536      9.4865374    
    103000   1.4734079      0.56896124     0              2.777994       9.6605618    
    103500   1.4720493      0.5568505      0              2.7638463      9.423867     
    104000   1.4655434      0.53339252     0              2.7306342      9.3004597    
    104500   1.4226076      0.56521709     0              2.6980865      9.3902095    
    105000   1.4058487      0.56964111     0              2.6773845      9.4456629    
    105500   1.4284908      0.5654678      0              2.7071577      9.5199045    
    106000   1.3860652      0.56834236     0              2.646425       9.4225714    
    106500   1.388095       0.53548972     0              2.6166156      9.1147168    
    107000   1.3870555      0.52094275     0              2.6005101      8.9600525    
    107500   1.345529       0.50999886     0              2.5273069      8.8538208    
    108000   1.340294       0.50920643     0              2.5186658      8.8763751    
    108500   1.3331858      0.54007269     0              2.538875       9.2076762    
    109000   1.2986678      0.5236647      0              2.4707152      8.8815085    
    109500   1.2805915      0.53284264     0              2.452792       9.0923906    
    110000   1.2888033      0.4548106      0              2.3870716      8.21501      
    110500   1.2832779      0.49929865     0              2.4232756      8.6586706    
    111000   1.2244126      0.46347698     0              2.299199       8.2446731    
    111500   1.1995543      0.4816063      0              2.2800592      8.4281473    
    112000   1.2325598      0.45155173     0              2.2994887      8.0928691    
    112500   1.2118564      0.43917951     0              2.2560766      7.977054     
    113000   1.1603649      0.49318198     0              2.2328794      8.5772987    
    113500   1.1183737      0.41802171     0              2.0947632      7.6716074    
    114000   1.1309493      0.42888445     0              2.12448        7.7335782    
    114500   1.0968133      0.41279935     0              2.0572159      7.577672     
    115000   1.1119409      0.41526139     0              2.0823583      7.6172048    
    115500   1.0798976      0.44629336     0              2.0653488      7.9678888    
    116000   1.1074369      0.39239587     0              2.0527401      7.3243785    
    116500   1.0787665      0.38760501     0              2.0049646      7.3990296    
    117000   1.0397225      0.37548465     0              1.9343068      7.1470535    
    117500   1.0395477      0.35202253     0              1.9105826      6.8096142    
    118000   1.017858       0.35906872     0              1.8851103      6.9251007    
    118500   0.99568764     0.39084932     0              1.8836515      7.2516515    
    119000   1.0073852      0.37506419     0              1.8854042      7.0396311    
    119500   0.98575974     0.36044424     0              1.8383619      6.9100564    
    120000   0.97160571     0.34441176     0              1.8011087      6.7217594    
    120500   0.93250305     0.34804288     0              1.7461145      6.6967361    
    121000   0.93330558     0.33074955     0              1.7300244      6.5145047    
    121500   0.92188403     0.32688515     0              1.709036       6.5096389    
    122000   0.92840111     0.30419172     0              1.6961134      6.2133397    
    122500   0.91419039     0.33774018     0              1.7083562      6.5112096    
    123000   0.87963383     0.32335046     0              1.6421569      6.4133292    
    123500   0.88252342     0.3041022      0              1.6272409      6.1716524    
    124000   0.8423559      0.31929547     0              1.5822124      6.2597498    
    124500   0.87863983     0.28538006     0              1.6026963      5.9104187    
    125000   0.81630603     0.3113016      0              1.5351628      6.2213905    
    125500   0.82916868     0.28183201     0              1.5249777      5.82399      
    126000   0.82403567     0.29634232     0              1.5317923      5.9569134    
    126500   0.78462215     0.27583473     0              1.4521933      5.7087666    
    127000   0.79082995     0.27401525     0              1.4596809      5.6598483    
    127500   0.73914332     0.26959728     0              1.3777709      5.5531021    
    128000   0.73638839     0.24528624     0              1.3493295      5.2706609    
    128500   0.72341078     0.24931181     0              1.3338981      5.2460304    
    129000   0.72185365     0.2526133      0              1.3348651      5.3168297    
    129500   0.68554271     0.22458466     0              1.2523966      4.966845     
    130000   0.67828102     0.21516908     0              1.2320938      4.9017765    
    130500   0.65951881     0.20772508     0              1.1965203      4.7289695    
    131000   0.64336061     0.21275569     0              1.1773254      4.7892348    
    131500   0.62981717     0.20534375     0              1.1496082      4.7027727    
    132000   0.61287487     0.19485419     0              1.1137176      4.4567519    
    132500   0.60613728     0.19533321     0              1.1040952      4.5640314    
    133000   0.61190435     0.19751056     0              1.1149189      4.4894469    
    133500   0.57727304     0.1931509      0              1.0586377      4.3826124    
    134000   0.57572051     0.17616011     0              1.0393192      4.2395483    
    134500   0.5536465      0.16560884     0              0.99567309     3.9949058    
    135000   0.54106231     0.16621019     0              0.97740737     4.0729473    
    135500   0.51357254     0.1644391      0              0.93442176     3.9651097    
    136000   0.50420257     0.15666429     0              0.91259886     3.8942709    
    136500   0.49695789     0.15223241     0              0.89730525     3.7886018    
    137000   0.47255526     0.16456689     0              0.87305367     3.9510216    
    137500   0.47079408     0.14198762     0              0.84783392     3.6428887    
    138000   0.44386702     0.13218437     0              0.7976598      3.3989085    
    138500   0.42588511     0.1224275      0              0.76094324     3.2975412    
    139000   0.41797293     0.12157983     0              0.7482331      3.242125     
    139500   0.40638144     0.12801073     0              0.73728525     3.3391482    
    140000   0.40229793     0.10932368     0              0.71247592     2.9915809    
    140500   0.37516152     0.10633787     0              0.66880537     2.9262832    
    141000   0.35709447     0.096284128    0              0.63166429     2.7513696    
    141500   0.34312816     0.093305567    0              0.6077465      2.6784124    
    142000   0.3366496      0.085485289    0              0.59021311     2.5416999    
    142500   0.32841565     0.083682218    0              0.57606516     2.5101552    
    143000   0.30414509     0.075279752    0              0.53127462     2.3334156    
    143500   0.28589052     0.068843343    0              0.49746973     2.2077915    
    144000   0.27690363     0.0677331      0              0.48288573     2.1385498    
    144500   0.26284095     0.068230949    0              0.46229987     2.1781692    
    145000   0.24297701     0.06012287     0              0.42441042     1.9893768    
    145500   0.22985071     0.054722516    0              0.39933023     1.9028768    
    146000   0.21670226     0.051193678    0              0.37608835     1.7825101    
    146500   0.20087661     0.048512246    0              0.34968003     1.7516178    
    147000   0.18888759     0.04218036     0              0.3253734      1.5500007    
    147500   0.17368852     0.038562807    0              0.29896838     1.4508241    
    148000   0.15861856     0.034751755    0              0.27256342     1.3571872    
    148500   0.14544253     0.029194548    0              0.24725182     1.2356716    
    149000   0.13060867     0.025427296    0              0.22124464     1.1014414    
    149500   0.11620009     0.021452091    0              0.19566711     0.99641175   
    150000   0.10171362     0.017943956    0              0.17043989     0.87468563   
Loop time of 12.4601 on 4 procs for 100000 steps with 2048 atoms

Performance: 6934111.602 tau/day, 8025.592 timesteps/s, 16.436 Matom-step/s
98.9% CPU use with 4 MPI tasks x 1 OpenMP threads

MPI task timing breakdown:
Section |  min time  |  avg time  |  max time  |%varavg| %total
---------------------------------------------------------------
Pair    | 1.8531     | 1.8613     | 1.8706     |   0.6 | 14.94
Neigh   | 6.7486     | 6.7696     | 6.7793     |   0.5 | 54.33
Comm    | 2.4446     | 2.463      | 2.4905     |   1.1 | 19.77
Output  | 0.16426    | 0.16523    | 0.16814    |   0.4 |  1.33
Modify  | 0.79642    | 0.80571    | 0.81592    |   0.8 |  6.47
Other   |            | 0.3952     |            |       |  3.17

Nlocal:            512 ave         518 max         507 min
Histogram: 1 1 0 0 0 0 1 0 0 1
Nghost:         680.75 ave         691 max         672 min
Histogram: 1 0 1 0 0 1 0 0 0 1
Neighs:        2312.75 ave        2345 max        2281 min
Histogram: 2 0 0 0 0 0 0 0 0 2

Total # of neighbors = 9251
Ave neighs/atom = 4.5170898
Neighbor list builds = 28323
Dangerous builds = 0

Total wall time: 0:00:20
