LAMMPS (15 Sep 2022)
OMP_NUM_THREADS environment is not set. Defaulting to 1 thread. (src/comm.cpp:98)
  using 1 OpenMP thread(s) per MPI task
# 3d WCA system, random initial configuration

#variable density equal 0.5
variable initial_temperature equal 3.0
variable final_temperature equal 0.1
variable dt equal 0.01
variable tau equal 100*${dt}
variable tau equal 100*0.01
variable thermo_time equal 50000*${dt}
variable thermo_time equal 50000*0.01
variable equil_steps equal 50000
variable run_steps equal 100000

units           lj
atom_style      atomic
dimension       3

lattice         fcc ${density}
lattice         fcc 1.3
Lattice spacing in x,y,z = 1.4544726 1.4544726 1.4544726
region          box block 0 8 0 8 0 8
# number of atom types
create_box      1 box
Created orthogonal box = (0 0 0) to (11.635781 11.635781 11.635781)
  1 by 2 by 2 MPI processor grid
create_atoms    1 box
Created 2048 atoms
  using lattice units in orthogonal box = (0 0 0) to (11.635781 11.635781 11.635781)
  create_atoms CPU = 0.000 seconds
mass 1 1.0

velocity all create ${initial_temperature} 99999
velocity all create 3 99999

pair_style      lj/cut 1.0
#type_1 type_2 epsilon sigma cutoff
pair_coeff      1 1 10.0 0.89089871814 1.0
pair_modify shift yes

timestep ${dt}
timestep 0.01
thermo ${thermo_time}
thermo 500

fix 1 all nvt temp ${initial_temperature} ${initial_temperature} ${tau}
fix 1 all nvt temp 3 ${initial_temperature} ${tau}
fix 1 all nvt temp 3 3 ${tau}
fix 1 all nvt temp 3 3 1
run ${equil_steps}
run 50000
Generated 0 of 0 mixed pair_coeff terms from geometric mixing rule
Neighbor list info ...
  update: every = 1 steps, delay = 0 steps, check = yes
  max neighbors/atom: 2000, page size: 100000
  master list distance cutoff = 1.3
  ghost atom cutoff = 1.3
  binsize = 0.65, bins = 18 18 18
  1 neighbor lists, perpetual/occasional/extra = 1 0 0
  (1) pair lj/cut, perpetual
      attributes: half, newton on
      pair build: half/bin/atomonly/newton
      stencil: half/bin/3d
      bin: standard
Per MPI rank memory allocation (min/avg/max) = 3.098 | 3.098 | 3.098 Mbytes
   Step          Temp          E_pair         E_mol          TotEng         Press     
         0   3              0              0              4.4978027      3.8980957    
       500   3.1119016      2.8580566      0              7.5236298      51.125447    
      1000   2.8947461      2.878395       0              7.218394       50.940547    
      1500   2.8821797      2.8615273      0              7.1826859      50.948431    
      2000   2.9568704      2.8011014      0              7.2342413      50.351206    
      2500   3.0448125      2.7631999      0              7.3281885      49.991873    
      3000   3.0343187      2.8386865      0              7.3879422      51.162848    
      3500   2.9132089      2.8527153      0              7.2203949      51.108042    
      4000   3.1202052      2.7439907      0              7.4220133      50.085452    
      4500   2.8713171      2.8710906      0              7.1759631      50.971692    
      5000   2.9996113      2.8810295      0              7.3782494      51.164803    
      5500   2.9884669      2.8850505      0              7.3655621      51.182122    
      6000   2.9483712      2.9703275      0              7.3907248      52.426465    
      6500   3.0361972      2.8626419      0              7.414714       51.338724    
      7000   3.0099014      2.8645052      0              7.3771528      50.86803     
      7500   3.0041204      2.8665758      0              7.370556       51.600884    
      8000   3.0929025      2.7940214      0              7.4311099      50.381452    
      8500   3.0293098      2.8382927      0              7.3800387      50.82436     
      9000   3.0494082      2.8873897      0              7.4592686      51.210968    
      9500   3.0129832      2.8803655      0              7.3976335      51.480004    
     10000   3.098308       2.7370897      0              7.3822824      49.96927     
     10500   3.0163772      2.9028785      0              7.4252351      51.470394    
     11000   3.0599744      2.8068195      0              7.39454        50.590864    
     11500   3.0121383      2.8504417      0              7.366443       51.039026    
     12000   3.0726583      2.7897881      0              7.396525       50.190012    
     12500   2.9428456      2.9539304      0              7.3660434      52.515179    
     13000   3.1175083      2.6843532      0              7.3583323      48.74651     
     13500   2.965109       2.9620209      0              7.4075127      52.037012    
     14000   3.0481346      2.7984973      0              7.3684666      50.252512    
     14500   3.0589648      2.8458775      0              7.4320843      51.003584    
     15000   3.0033627      2.8638066      0              7.3666509      51.036021    
     15500   3.0936659      2.7736632      0              7.4118962      50.060167    
     16000   3.0194332      2.8421196      0              7.3690579      51.141023    
     16500   3.0007232      2.8951558      0              7.3940429      51.548204    
     17000   2.967389       2.9603965      0              7.4093066      52.275227    
     17500   3.0039442      2.8890273      0              7.3927434      51.335048    
     18000   3.0524191      2.8289755      0              7.4053686      50.545941    
     18500   3.0237852      2.9013557      0              7.4348188      51.76025     
     19000   3.093436       2.7100032      0              7.3478916      49.750292    
     19500   3.0370491      2.816007       0              7.3693563      50.585766    
     20000   3.0754384      2.801589       0              7.412494       50.606674    
     20500   2.9472784      2.9391455      0              7.3579044      52.021743    
     21000   3.0488173      2.8327504      0              7.4037433      50.913584    
     21500   2.9997154      2.8809939      0              7.37837        51.49954     
     22000   3.0222377      2.8581956      0              7.3893386      51.535359    
     22500   3.001939       2.8915809      0              7.3922907      51.427995    
     23000   2.9388781      2.9252182      0              7.3313829      51.979323    
     23500   3.0262817      2.8247274      0              7.3619334      50.571066    
     24000   3.0283049      2.8545816      0              7.3948209      51.332061    
     24500   3.0558715      2.8186484      0              7.4002175      50.605253    
     25000   3.080821       2.773481       0              7.3924561      50.644351    
     25500   3.0039297      2.8557188      0              7.3594132      50.870786    
     26000   2.9745307      2.9497884      0              7.4094059      52.225279    
     26500   3.0126955      2.8624822      0              7.3793188      51.434036    
     27000   3.0023311      2.8502751      0              7.3515727      51.048514    
     27500   2.9868198      2.8605467      0              7.3385888      51.13761     
     28000   3.006099       2.6946857      0              7.2016325      49.150917    
     28500   3.005474       2.8783603      0              7.38437        51.308149    
     29000   2.8910492      2.7825659      0              7.1170221      49.872407    
     29500   3.0897641      2.7766257      0              7.4090088      50.062971    
     30000   3.0306704      2.8092803      0              7.3530663      50.897594    
     30500   3.0233437      2.9468263      0              7.4796275      52.015647    
     31000   2.9985704      2.8066475      0              7.3023069      50.634127    
     31500   3.0765221      2.9274107      0              7.5399406      52.076174    
     32000   2.9997273      2.8154212      0              7.3128152      50.499138    
     32500   3.0202711      2.9341173      0              7.4623119      52.107052    
     33000   2.9652837      2.8729052      0              7.3186589      50.999979    
     33500   3.0087676      2.9069826      0              7.4179304      51.700745    
     34000   3.0682761      2.7773496      0              7.3775166      49.974948    
     34500   2.9687491      2.9089114      0              7.3598607      51.908092    
     35000   3.0556559      2.8465675      0              7.4278134      50.887953    
     35500   3.0960412      2.7487382      0              7.3905324      49.802346    
     36000   3.0196812      2.8477763      0              7.3750864      51.160238    
     36500   3.0263803      2.8520971      0              7.389451       50.844509    
     37000   3.0495604      2.8473552      0              7.4194622      50.95173     
     37500   2.9871492      2.8580258      0              7.3365617      50.919558    
     38000   3.0009539      2.8151725      0              7.3144054      50.612843    
     38500   3.0043419      2.8231717      0              7.3274841      50.598358    
     39000   2.9191944      2.8141252      0              7.1907787      50.716519    
     39500   2.9700513      2.8886973      0              7.341599       51.581706    
     40000   2.9778392      2.7509562      0              7.2155339      49.754992    
     40500   3.0740107      2.7643146      0              7.3730792      49.887369    
     41000   2.9893544      2.9451788      0              7.4270209      52.141651    
     41500   3.0121657      2.8484751      0              7.3645175      50.853726    
     42000   2.9951108      2.9035952      0              7.3940677      51.632574    
     42500   3.0176316      2.8684859      0              7.3927232      51.307771    
     43000   3.0164249      2.779419       0              7.3018471      50.344389    
     43500   3.054631       2.8190818      0              7.398791       50.737923    
     44000   2.9262713      2.8058415      0              7.1931051      50.468992    
     44500   2.9624583      2.8307871      0              7.2723048      50.939588    
     45000   3.0288435      2.8345235      0              7.3755704      50.821976    
     45500   3.0068509      2.912978       0              7.4210521      51.580844    
     46000   3.0501163      2.7617062      0              7.3346467      50.237546    
     46500   3.0508869      2.7634695      0              7.3375653      49.932405    
     47000   3.0286526      2.9069042      0              7.4476649      51.314384    
     47500   2.9744332      2.9265321      0              7.3860033      52.058704    
     48000   3.013526       2.8540027      0              7.3720845      51.368043    
     48500   3.0823389      2.7661555      0              7.3874063      50.434638    
     49000   2.9822741      2.890865       0              7.3620918      51.718102    
     49500   3.0408138      2.8266052      0              7.3855988      50.711706    
     50000   3.0453433      2.8392116      0              7.4049961      51.02432     
Loop time of 8.9427 on 4 procs for 50000 steps with 2048 atoms

Performance: 4830757.430 tau/day, 5591.154 timesteps/s, 11.451 Matom-step/s
99.2% CPU use with 4 MPI tasks x 1 OpenMP threads

MPI task timing breakdown:
Section |  min time  |  avg time  |  max time  |%varavg| %total
---------------------------------------------------------------
Pair    | 1.8099     | 1.8538     | 1.8945     |   2.3 | 20.73
Neigh   | 4.1699     | 4.5089     | 5.0387     |  16.3 | 50.42
Comm    | 1.3707     | 1.9155     | 2.267      |  26.5 | 21.42
Output  | 0.00177    | 0.0032381  | 0.0076403  |   4.5 |  0.04
Modify  | 0.41073    | 0.41917    | 0.43273    |   1.3 |  4.69
Other   |            | 0.2421     |            |       |  2.71

Nlocal:            512 ave         520 max         505 min
Histogram: 1 0 1 0 0 0 1 0 0 1
Nghost:         645.75 ave         653 max         639 min
Histogram: 1 1 0 0 0 0 0 1 0 1
Neighs:        3135.25 ave        3157 max        3115 min
Histogram: 1 1 0 0 0 0 0 1 0 1

Total # of neighbors = 12541
Ave neighs/atom = 6.1235352
Neighbor list builds = 20136
Dangerous builds = 0

unfix 1
dump           1 all atom ${run_steps} 3dWCA_T${final_temperature}_d${density}_N${run_steps}.lammpstrj
dump           1 all atom 100000 3dWCA_T${final_temperature}_d${density}_N${run_steps}.lammpstrj
dump           1 all atom 100000 3dWCA_T0.1_d${density}_N${run_steps}.lammpstrj
dump           1 all atom 100000 3dWCA_T0.1_d1.3_N${run_steps}.lammpstrj
dump           1 all atom 100000 3dWCA_T0.1_d1.3_N100000.lammpstrj
dump           2 all dcd ${thermo_time} 3dWCA_T${final_temperature}_d${density}_N${run_steps}.dcd
dump           2 all dcd 500 3dWCA_T${final_temperature}_d${density}_N${run_steps}.dcd
dump           2 all dcd 500 3dWCA_T0.1_d${density}_N${run_steps}.dcd
dump           2 all dcd 500 3dWCA_T0.1_d1.3_N${run_steps}.dcd
dump           2 all dcd 500 3dWCA_T0.1_d1.3_N100000.dcd
fix 1 all nvt temp ${initial_temperature} ${final_temperature} ${tau}
fix 1 all nvt temp 3 ${final_temperature} ${tau}
fix 1 all nvt temp 3 0.1 ${tau}
fix 1 all nvt temp 3 0.1 1

run ${run_steps}
run 100000
Generated 0 of 0 mixed pair_coeff terms from geometric mixing rule
Per MPI rank memory allocation (min/avg/max) = 3.169 | 3.169 | 3.17 Mbytes
   Step          Temp          E_pair         E_mol          TotEng         Press     
     50000   3.0453433      2.8392116      0              7.4049961      51.02432     
     50500   2.9395064      2.8902063      0              7.297313       51.503727    
     51000   3.0465757      2.751155       0              7.3187871      49.770694    
     51500   2.9172855      2.8963718      0              7.2701635      51.369204    
     52000   2.9608957      2.7849697      0              7.2241447      50.279192    
     52500   2.9318738      2.8113082      0              7.2069715      50.769525    
     53000   2.9346709      2.7887654      0              7.1886223      50.274306    
     53500   2.9313532      2.7366288      0              7.1315117      49.535798    
     54000   2.8930793      2.7588127      0              7.0963126      49.67316     
     54500   2.9251007      2.6583617      0              7.0438703      48.642448    
     55000   2.9144702      2.6519381      0              7.0215088      48.616518    
     55500   2.8718474      2.6838815      0              6.9895492      48.912555    
     56000   2.8382772      2.626205       0              6.8815419      48.365241    
     56500   2.7681959      2.6809719      0              6.8312382      48.838727    
     57000   2.7744418      2.6528041      0              6.8124348      48.379738    
     57500   2.8195728      2.6499925      0              6.8772867      48.321812    
     58000   2.8089605      2.6360095      0              6.8473928      48.600355    
     58500   2.7301906      2.5721848      0              6.6654709      47.430228    
     59000   2.7378296      2.6251676      0              6.7299068      47.857214    
     59500   2.6780146      2.5786897      0              6.5937502      47.55298     
     60000   2.8417101      2.5123085      0              6.7727923      46.545309    
     60500   2.7399143      2.4178063      0              6.5256709      45.553845    
     61000   2.691618       2.6570567      0              6.6925123      48.55037     
     61500   2.6667499      2.4688624      0              6.4670341      46.133481    
     62000   2.7094837      2.5093069      0              6.571548       46.680897    
     62500   2.6213354      2.4905592      0              6.4206424      46.324951    
     63000   2.6591366      2.4762448      0              6.4630021      46.388337    
     63500   2.606235       2.3817392      0              6.2891828      44.944688    
     64000   2.5378369      2.3918105      0              6.1967072      45.094381    
     64500   2.5329061      2.424697       0              6.222201       45.647637    
     65000   2.4696891      2.4260331      0              6.1287578      45.719371    
     65500   2.5571931      2.3771542      0              6.2110708      45.035231    
     66000   2.4965305      2.2798738      0              6.0228411      43.637152    
     66500   2.4822282      2.4336016      0              6.1551258      45.526877    
     67000   2.5182192      2.249589       0              6.0250734      43.008653    
     67500   2.4997776      2.2834103      0              6.0312458      43.818889    
     68000   2.541953       2.3077203      0              6.118788       43.928368    
     68500   2.471465       2.2211082      0              5.9264956      42.998549    
     69000   2.4548937      2.1726865      0              5.853229       42.148303    
     69500   2.4492411      2.229091       0              5.9011587      43.006447    
     70000   2.3847855      2.1898416      0              5.7652731      42.606675    
     70500   2.3848301      2.2439499      0              5.8194483      43.283352    
     71000   2.410586       2.1053185      0              5.7194319      41.593002    
     71500   2.3718972      2.1999881      0              5.7560966      42.520455    
     72000   2.4287544      2.1692256      0              5.8105783      42.282768    
     72500   2.3613538      2.2490496      0              5.7893508      43.540846    
     73000   2.359681       2.095497       0              5.6332902      41.12844     
     73500   2.2444138      2.174588       0              5.5395649      42.155288    
     74000   2.2824988      2.1349773      0              5.5570537      41.645214    
     74500   2.3288758      2.1610632      0              5.6526712      41.974537    
     75000   2.2709775      2.0790427      0              5.4838456      40.976787    
     75500   2.2695812      2.0969564      0              5.4996659      40.962265    
     76000   2.2947299      2.0093816      0              5.4497957      40.109433    
     76500   2.2899974      2.0842706      0              5.5175894      41.153493    
     77000   2.2102855      2.0191335      0              5.3329429      40.2031      
     77500   2.2659109      2.0332577      0              5.4304644      40.484545    
     78000   2.1280257      1.9647894      0              5.1552693      39.407196    
     78500   2.1658235      1.9978739      0              5.2450228      39.534352    
     79000   2.0680659      1.9599558      0              5.0605399      39.362381    
     79500   2.1130475      1.9047779      0              5.0728015      38.597851    
     80000   2.1304646      1.8462112      0              5.0403478      37.753266    
     80500   2.1134846      1.8303405      0              4.9990194      37.686028    
     81000   2.0530041      1.9315918      0              5.0095944      38.677263    
     81500   2.0710998      1.8563296      0              4.9614624      37.894197    
     82000   2.0918429      1.8475383      0              4.9837706      37.964876    
     82500   2.0730198      1.8730478      0              4.9810592      38.212683    
     83000   2.1172217      1.9381595      0              5.1124413      38.673464    
     83500   1.9943652      1.8592315      0              4.8493186      37.72469     
     84000   1.9753374      1.8225925      0              4.7841518      37.30995     
     84500   1.9642229      1.838906       0              4.7838017      37.699427    
     85000   1.9833649      1.6993193      0              4.672914       35.990693    
     85500   1.9947353      1.7718513      0              4.7624934      36.876052    
     86000   1.9753223      1.7783712      0              4.7399079      36.690112    
     86500   2.0004821      1.678361       0              4.6776189      35.629711    
     87000   1.9105842      1.7172317      0              4.5817086      35.903571    
     87500   1.915746       1.7146793      0              4.5868952      35.803484    
     88000   1.9670572      1.7053339      0              4.6544789      35.594974    
     88500   1.8456479      1.6896957      0              4.4568157      35.43114     
     89000   1.8454839      1.6318222      0              4.3986964      34.775115    
     89500   1.8868962      1.6830463      0              4.5120085      35.408176    
     90000   1.9151204      1.6476325      0              4.5189104      35.180808    
     90500   1.7697759      1.7143473      0              4.3677149      35.667451    
     91000   1.8822566      1.6113799      0              4.4333861      34.650838    
     91500   1.7853693      1.5227573      0              4.1995036      33.175092    
     92000   1.7597409      1.6071619      0              4.2454844      34.125515    
     92500   1.7581843      1.5330619      0              4.1690507      33.203496    
     93000   1.7467619      1.5318744      0              4.1507379      33.075344    
     93500   1.7734365      1.5080219      0              4.1668777      32.872936    
     94000   1.7509054      1.5717349      0              4.1968107      33.617619    
     94500   1.7677201      1.5286067      0              4.1788922      33.355557    
     95000   1.7503275      1.4445758      0              4.0687851      31.726455    
     95500   1.6882778      1.5417434      0              4.0729236      33.128978    
     96000   1.6090381      1.5039725      0              3.9163511      32.708488    
     96500   1.6529763      1.4503498      0              3.9286036      31.868761    
     97000   1.6352093      1.41723        0              3.8688463      31.48791     
     97500   1.6501412      1.4509903      0              3.9249935      32.110889    
     98000   1.5669778      1.3895132      0              3.7388322      30.958275    
     98500   1.5708943      1.4421514      0              3.7973423      31.7497      
     99000   1.5254884      1.3583926      0              3.645508       30.649084    
     99500   1.5423032      1.3533173      0              3.6656424      30.453258    
    100000   1.558116       1.3394856      0              3.6755183      30.360421    
    100500   1.5334127      1.3147524      0              3.6137484      30.056146    
    101000   1.5290013      1.3147562      0              3.6071383      29.931943    
    101500   1.5558027      1.322874       0              3.6554385      29.865189    
    102000   1.5144913      1.2340794      0              3.5047071      28.830578    
    102500   1.4959581      1.3149588      0              3.5578004      29.953131    
    103000   1.4431072      1.2008116      0              3.3644155      28.044059    
    103500   1.4370882      1.2485761      0              3.4031558      28.756079    
    104000   1.4012142      1.2317722      0              3.3325672      28.479637    
    104500   1.4354308      1.1901085      0              3.3422034      27.958965    
    105000   1.4075072      1.1821909      0              3.2924208      27.805699    
    105500   1.3598741      1.2467541      0              3.2855692      28.640018    
    106000   1.4092177      1.2024374      0              3.3152319      28.320288    
    106500   1.3541241      1.1710405      0              3.2012348      27.580265    
    107000   1.3411346      1.2070419      0              3.2177615      28.30529     
    107500   1.3450597      1.1268348      0              3.1434391      26.999028    
    108000   1.298795       1.1612266      0              3.1084678      27.481855    
    108500   1.3030011      1.0908355      0              3.0443828      26.159925    
    109000   1.3069395      1.0856656      0              3.0451175      26.243497    
    109500   1.2460626      1.0588925      0              2.9270737      25.708724    
    110000   1.260462       1.0704211      0              2.9601909      26.0055      
    110500   1.2672625      1.0011878      0              2.9011533      24.98887     
    111000   1.2379716      1.0299192      0              2.8859699      25.338482    
    111500   1.2496531      1.0253083      0              2.8988727      25.321936    
    112000   1.1976141      0.98959016     0              2.7851342      24.539195    
    112500   1.2007466      1.0041408      0              2.8043812      24.920875    
    113000   1.1549259      0.92367977     0              2.6552228      23.519986    
    113500   1.1432562      0.96830639     0              2.6823534      24.245446    
    114000   1.1669229      0.94188392     0              2.6914137      23.838494    
    114500   1.1470789      0.96635963     0              2.6861378      24.249841    
    115000   1.1599029      0.91179079     0              2.6507956      23.483194    
    115500   1.0939606      0.90264136     0              2.542781       23.321284    
    116000   1.1155171      0.85632578     0              2.5287844      22.427947    
    116500   1.0977022      0.91269933     0              2.5584486      23.411214    
    117000   1.0279152      0.87106288     0              2.4121829      22.503062    
    117500   1.0429173      0.86866505     0              2.4322772      22.43874     
    118000   1.0263098      0.78108601     0              2.3197991      21.024604    
    118500   1.0312049      0.81126298     0              2.3573151      21.305234    
    119000   0.96350313     0.78999797     0              2.234547       21.098329    
    119500   0.96406291     0.81529122     0              2.2606795      21.756781    
    120000   0.96621974     0.76662649     0              2.2152484      20.830734    
    120500   0.966328       0.77015213     0              2.2189364      20.913859    
    121000   0.94614724     0.73008343     0              2.1486113      20.081246    
    121500   0.90870395     0.75569105     0              2.1180814      20.48471     
    122000   0.90194437     0.72988437     0              2.0821403      20.174992    
    122500   0.88735377     0.73989858     0              2.0702793      20.273206    
    123000   0.87690516     0.73309044     0              2.0478059      20.051678    
    123500   0.8488584      0.72952389     0              2.0021898      19.951282    
    124000   0.85226686     0.69221941     0              1.9699955      19.446152    
    124500   0.83912984     0.65874127     0              1.9168214      18.813607    
    125000   0.85588385     0.65435967     0              1.9375586      18.731721    
    125500   0.82080319     0.60659892     0              1.8372025      17.814449    
    126000   0.80860087     0.64702252     0              1.8593316      18.450114    
    126500   0.76506425     0.61717077     0              1.7642068      17.731861    
    127000   0.77662846     0.60869754     0              1.7730714      17.817319    
    127500   0.73424427     0.56731859     0              1.6681472      16.931118    
    128000   0.75028219     0.56739261     0              1.6922664      16.934761    
    128500   0.71640517     0.53574693     0              1.60983        16.293946    
    129000   0.69742672     0.55951797     0              1.6051472      16.617286    
    129500   0.70962509     0.53671948     0              1.6006374      16.460709    
    130000   0.68319055     0.51784255     0              1.542128       16.147276    
    130500   0.68441532     0.52945856     0              1.5555803      16.162531    
    131000   0.65413488     0.48208582     0              1.462809       15.182471    
    131500   0.64748639     0.50386161     0              1.474617       15.57234     
    132000   0.62160504     0.45132175     0              1.383274       14.64189     
    132500   0.62145381     0.45584747     0              1.387573       14.68277     
    133000   0.5873248      0.42068522     0              1.3012422      13.834673    
    133500   0.5850524      0.42701666     0              1.3041668      14.026503    
    134000   0.54431908     0.41436794     0              1.2304479      13.786957    
    134500   0.5506191      0.40485482     0              1.2303802      13.634032    
    135000   0.52808083     0.39161166     0              1.1833461      13.276784    
    135500   0.51761003     0.37848145     0              1.1545174      12.968319    
    136000   0.50377479     0.36884848     0              1.1241417      12.558997    
    136500   0.50409807     0.3505621      0              1.10634        12.419548    
    137000   0.47430593     0.35077197     0              1.0618835      12.351368    
    137500   0.48390257     0.34025444     0              1.0657539      12.051659    
    138000   0.44602998     0.31173545     0              0.98045374     11.341918    
    138500   0.44404172     0.31102796     0              0.97676531     11.453595    
    139000   0.40490016     0.30316012     0              0.91021381     11.20111     
    139500   0.4095527      0.29337977     0              0.90740885     10.920348    
    140000   0.38461469     0.26780995     0              0.84445029     10.324303    
    140500   0.3870175      0.25676334     0              0.83700614     10.065422    
    141000   0.3549105      0.23690627     0              0.76901208     9.46618      
    141500   0.34371613     0.24472149     0              0.76004394     9.6606612    
    142000   0.32606709     0.2194742      0              0.70833602     9.0941713    
    142500   0.31717317     0.21558073     0              0.69110819     8.9018029    
    143000   0.30155668     0.18973552     0              0.64184967     8.1749362    
    143500   0.2918537      0.18707284     0              0.62463963     8.17744      
    144000   0.27435454     0.1731791      0              0.58450996     7.8443183    
    144500   0.26441097     0.16273623     0              0.55915903     7.4261804    
    145000   0.24958482     0.14493814     0              0.51913257     6.8779673    
    145500   0.23264149     0.14063732     0              0.48942917     6.7616763    
    146000   0.21930273     0.12901926     0              0.45781273     6.338273     
    146500   0.20187521     0.12284037     0              0.42550532     6.0799596    
    147000   0.19166526     0.10603301     0              0.39339052     5.5939166    
    147500   0.174497       0.098722218    0              0.36033991     5.2575836    
    148000   0.15669348     0.094329719    0              0.32925518     5.1481285    
    148500   0.14689112     0.076894651    0              0.29712374     4.4353115    
    149000   0.13228212     0.066318256    0              0.26464454     4.0760909    
    149500   0.11912945     0.054934769    0              0.23354168     3.5806333    
    150000   0.1039451      0.047250869    0              0.20309238     3.2880499    
Loop time of 13.6909 on 4 procs for 100000 steps with 2048 atoms

Performance: 6310776.794 tau/day, 7304.140 timesteps/s, 14.959 Matom-step/s
98.9% CPU use with 4 MPI tasks x 1 OpenMP threads

MPI task timing breakdown:
Section |  min time  |  avg time  |  max time  |%varavg| %total
---------------------------------------------------------------
Pair    | 3.2652     | 3.3438     | 3.4076     |   2.9 | 24.42
Neigh   | 5.3549     | 5.8305     | 6.5718     |  20.0 | 42.59
Comm    | 2.3792     | 3.1457     | 3.6328     |  29.1 | 22.98
Output  | 0.13653    | 0.13745    | 0.14019    |   0.4 |  1.00
Modify  | 0.81601    | 0.82446    | 0.83436    |   0.8 |  6.02
Other   |            | 0.409      |            |       |  2.99

Nlocal:            512 ave         525 max         500 min
Histogram: 1 1 0 0 0 0 0 0 1 1
Nghost:            637 ave         649 max         624 min
Histogram: 1 0 1 0 0 0 0 0 1 1
Neighs:           3072 ave        3185 max        2968 min
Histogram: 2 0 0 0 0 0 0 0 1 1

Total # of neighbors = 12288
Ave neighs/atom = 6
Neighbor list builds = 27683
Dangerous builds = 0

Total wall time: 0:00:22
