LAMMPS (15 Sep 2022)
OMP_NUM_THREADS environment is not set. Defaulting to 1 thread. (src/comm.cpp:98)
  using 1 OpenMP thread(s) per MPI task
# 2d WCA system, random initial configuration

#variable density equal 0.5
variable initial_temperature equal 3.0
variable final_temperature equal 0.1
variable dt equal 0.01
variable tau equal 100*${dt}
variable tau equal 100*0.01
variable thermo_time equal 50000*${dt}
variable thermo_time equal 50000*0.01
variable equil_steps equal 50000
variable run_steps equal 100000

units           lj
atom_style      atomic
dimension       2

lattice         sq ${density}
lattice         sq 0.6
Lattice spacing in x,y,z = 1.2909944 1.2909944 1.2909944
region          box block 0 20 0 20 -0.5 0.5
# number of atom types
create_box      1 box
Created orthogonal box = (0 0 -0.64549722) to (25.819889 25.819889 0.64549722)
  2 by 2 by 1 MPI processor grid
create_atoms    1 box
Created 400 atoms
  using lattice units in orthogonal box = (0 0 -0.64549722) to (25.819889 25.819889 0.64549722)
  create_atoms CPU = 0.000 seconds
mass 1 1.0

velocity all create ${initial_temperature} 50000
velocity all create 3 50000

pair_style      lj/cut 1.0
#type_1 type_2 epsilon sigma cutoff
pair_coeff      1 1 10.0 0.89089871814 1.0
pair_modify shift yes

timestep ${dt}
timestep 0.01
thermo ${thermo_time}
thermo 500

fix 1 all nvt temp ${initial_temperature} ${initial_temperature} ${tau}
fix 1 all nvt temp 3 ${initial_temperature} ${tau}
fix 1 all nvt temp 3 3 ${tau}
fix 1 all nvt temp 3 3 1
run ${equil_steps}
run 50000
Generated 0 of 0 mixed pair_coeff terms from geometric mixing rule
Neighbor list info ...
  update: every = 1 steps, delay = 0 steps, check = yes
  max neighbors/atom: 2000, page size: 100000
  master list distance cutoff = 1.3
  ghost atom cutoff = 1.3
  binsize = 0.65, bins = 40 40 2
  1 neighbor lists, perpetual/occasional/extra = 1 0 0
  (1) pair lj/cut, perpetual
      attributes: half, newton on
      pair build: half/bin/atomonly/newton
      stencil: half/bin/2d
      bin: standard
Per MPI rank memory allocation (min/avg/max) = 3.05 | 3.05 | 3.05 Mbytes
   Step          Temp          E_pair         E_mol          TotEng         Press     
         0   3              0              0              2.9925         1.7955       
       500   2.8929957      0.25893444     0              3.1446977      4.90195      
      1000   2.9806224      0.2427474      0              3.2159183      4.9354429    
      1500   2.8920101      0.35753213     0              3.2423122      5.6409308    
      2000   2.8234428      0.43424648     0              3.2506306      6.5199702    
      2500   2.8827149      0.37843119     0              3.2539393      5.7555105    
      3000   2.9292634      0.28906745     0              3.2110077      5.1529358    
      3500   3.0527054      0.25792085     0              3.3029945      4.8255962    
      4000   3.099724       0.34501706     0              3.4369917      5.7311008    
      4500   3.2581101      0.2606823      0              3.5106471      5.1904369    
      5000   3.2413867      0.41940359     0              3.6526868      6.4068864    
      5500   2.8679969      0.28927112     0              3.1500981      5.0316627    
      6000   2.8597112      0.32203056     0              3.1745925      5.3379974    
      6500   3.0072803      0.26191762     0              3.2616798      4.966316     
      7000   2.8022702      0.27585384     0              3.0711184      5.1074275    
      7500   2.9766722      0.28289784     0              3.2521284      5.1559513    
      8000   2.9683158      0.29948141     0              3.2603764      5.1885856    
      8500   3.0078108      0.346012       0              3.3463032      5.6781068    
      9000   3.0815164      0.22553191     0              3.2993445      4.8317434    
      9500   2.972269       0.34558578     0              3.3104241      5.6115378    
     10000   2.9340618      0.29245145     0              3.2191781      5.3765249    
     10500   2.911619       0.35648932     0              3.2608293      5.719524     
     11000   2.849693       0.3106562      0              3.1532249      5.4464874    
     11500   2.874076       0.22959952     0              3.0964903      4.6021578    
     12000   2.5556441      0.27689279     0              2.8261478      4.9430497    
     12500   2.7409773      0.34629251     0              3.0804174      5.5585413    
     13000   2.9945569      0.27640771     0              3.2634782      5.0774472    
     13500   2.9189455      0.31284767     0              3.2244958      5.2421618    
     14000   3.0299267      0.24128394     0              3.2636359      4.8389924    
     14500   2.82641        0.29108619     0              3.1104302      5.2103075    
     15000   2.8414447      0.41525936     0              3.2496005      6.1428478    
     15500   3.0229126      0.34291476     0              3.3582701      5.6498924    
     16000   3.0258468      0.30101459     0              3.3192968      5.4114861    
     16500   3.1436782      0.30861655     0              3.4444355      5.3568355    
     17000   3.1393882      0.34211787     0              3.4736576      5.8719911    
     17500   2.8808297      0.30114472     0              3.1747724      5.2325166    
     18000   2.796326       0.26753056     0              3.0568657      5.010348     
     18500   2.8776776      0.28307027     0              3.1535537      5.1244075    
     19000   2.929233       0.292047       0              3.2139569      5.4584838    
     19500   2.92884        0.27992714     0              3.2014451      4.9323355    
     20000   2.821752       0.30502251     0              3.1197202      5.4180837    
     20500   3.0644394      0.34899307     0              3.4057714      5.6383466    
     21000   3.0606461      0.34055357     0              3.393548       5.602253     
     21500   3.0987693      0.38342835     0              3.4744507      5.8424016    
     22000   3.1299629      0.29582494     0              3.417963       5.4138864    
     22500   3.0883323      0.29341618     0              3.3740277      5.1667092    
     23000   3.0405752      0.2886027      0              3.3215764      5.1862346    
     23500   2.8707221      0.28894923     0              3.1524945      4.918224     
     24000   2.9433546      0.30753584     0              3.2435321      5.6208259    
     24500   2.9722205      0.30404924     0              3.2688392      5.2483465    
     25000   3.1264         0.3380456      0              3.4566296      5.7073125    
     25500   3.1127322      0.31437063     0              3.419321       5.5280849    
     26000   3.0786621      0.35523289     0              3.4261984      5.9697919    
     26500   3.2129051      0.31646277     0              3.5213356      5.5847775    
     27000   3.3666878      0.36669893     0              3.72497        5.9417864    
     27500   3.1060264      0.30985965     0              3.4081209      5.441845     
     28000   3.0803815      0.31060167     0              3.3832823      5.4463953    
     28500   3.1665926      0.32699158     0              3.4856677      5.5507298    
     29000   3.3151787      0.22607987     0              3.5329706      4.898015     
     29500   2.8372605      0.28489753     0              3.1150649      5.0845059    
     30000   3.0350598      0.27477495     0              3.3022471      5.1438994    
     30500   2.9334835      0.29241965     0              3.2185695      5.1073045    
     31000   3.0261316      0.26061321     0              3.2791794      5.1142982    
     31500   2.8705774      0.30405561     0              3.1674566      5.1742068    
     32000   2.7305378      0.27603925     0              2.9997507      4.8142302    
     32500   2.9992649      0.20009569     0              3.1918624      4.4415132    
     33000   3.046694       0.31265347     0              3.3517308      5.4524012    
     33500   3.039678       0.25914477     0              3.2912236      5.0996999    
     34000   3.0428197      0.3623508      0              3.3975634      5.8637566    
     34500   3.0201462      0.31326928     0              3.3258651      5.4695208    
     35000   3.1089688      0.37614022     0              3.4773366      5.980321     
     35500   3.0717444      0.32132071     0              3.3853857      5.6421802    
     36000   3.1832011      0.34736446     0              3.5226076      5.8021805    
     36500   3.1910237      0.25340911     0              3.4364553      5.0537605    
     37000   3.240917       0.31087397     0              3.5436887      5.6675528    
     37500   2.9941584      0.35352996     0              3.340203       5.7609168    
     38000   2.9405095      0.28051104     0              3.2136692      5.109114     
     38500   2.745168       0.32097258     0              3.0592777      5.2241877    
     39000   2.7209112      0.25149642     0              2.9656054      4.810417     
     39500   2.806189       0.29529405     0              3.0944676      5.0839307    
     40000   2.9265969      0.26725181     0              3.1865322      4.9800757    
     40500   2.8884715      0.28804802     0              3.1692984      4.8918691    
     41000   2.8609616      0.21219977     0              3.066009       4.3873013    
     41500   2.7232164      0.37773387     0              3.0941422      5.6939693    
     42000   2.9265266      0.23668485     0              3.1558951      4.8349885    
     42500   2.8901331      0.27490061     0              3.1578084      5.0212172    
     43000   2.6881678      0.35281289     0              3.0342603      5.3973431    
     43500   2.8558345      0.2130993      0              3.0617942      4.4399335    
     44000   3.0571824      0.27663182     0              3.3261712      4.9998642    
     44500   2.9186819      0.26519031     0              3.1765755      4.9249854    
     45000   2.8842377      0.33109593     0              3.2081231      5.331649     
     45500   2.5492463      0.37711415     0              2.9199873      5.6498196    
     46000   2.8707223      0.30968816     0              3.1732336      5.3532714    
     46500   3.0290714      0.29443092     0              3.3159296      5.1638473    
     47000   3.1127594      0.38816729     0              3.4931448      6.4801214    
     47500   2.9758829      0.36557203     0              3.3340152      5.4048772    
     48000   3.1688252      0.36211262     0              3.5230158      5.95953      
     48500   3.0976227      0.28458637     0              3.374465       5.2938915    
     49000   3.030094       0.3183014      0              3.3408202      5.6658795    
     49500   3.015715       0.26040272     0              3.2685784      4.6971572    
     50000   2.9950324      0.29152629     0              3.2790711      5.1915489    
Loop time of 0.765701 on 4 procs for 50000 steps with 400 atoms

Performance: 56418881.142 tau/day, 65299.631 timesteps/s, 26.120 Matom-step/s
98.7% CPU use with 4 MPI tasks x 1 OpenMP threads

MPI task timing breakdown:
Section |  min time  |  avg time  |  max time  |%varavg| %total
---------------------------------------------------------------
Pair    | 0.077326   | 0.078612   | 0.079539   |   0.3 | 10.27
Neigh   | 0.17964    | 0.18092    | 0.18205    |   0.2 | 23.63
Comm    | 0.30493    | 0.30627    | 0.30799    |   0.2 | 40.00
Output  | 0.0010513  | 0.0012542  | 0.0018607  |   1.0 |  0.16
Modify  | 0.11884    | 0.12168    | 0.12374    |   0.5 | 15.89
Other   |            | 0.07696    |            |       | 10.05

Nlocal:            100 ave         102 max          95 min
Histogram: 1 0 0 0 0 0 0 0 1 2
Nghost:          45.25 ave          53 max          38 min
Histogram: 1 0 0 0 1 1 0 0 0 1
Neighs:         120.75 ave         137 max         108 min
Histogram: 1 0 1 0 0 1 0 0 0 1

Total # of neighbors = 483
Ave neighs/atom = 1.2075
Neighbor list builds = 16916
Dangerous builds = 0

unfix 1
dump           1 all atom ${run_steps} 2dWCA_T${final_temperature}_d${density}_N${run_steps}.lammpstrj
dump           1 all atom 100000 2dWCA_T${final_temperature}_d${density}_N${run_steps}.lammpstrj
dump           1 all atom 100000 2dWCA_T0.1_d${density}_N${run_steps}.lammpstrj
dump           1 all atom 100000 2dWCA_T0.1_d0.6_N${run_steps}.lammpstrj
dump           1 all atom 100000 2dWCA_T0.1_d0.6_N100000.lammpstrj
dump           2 all dcd ${thermo_time} 2dWCA_T${final_temperature}_d${density}_N${run_steps}.dcd
dump           2 all dcd 500 2dWCA_T${final_temperature}_d${density}_N${run_steps}.dcd
dump           2 all dcd 500 2dWCA_T0.1_d${density}_N${run_steps}.dcd
dump           2 all dcd 500 2dWCA_T0.1_d0.6_N${run_steps}.dcd
dump           2 all dcd 500 2dWCA_T0.1_d0.6_N100000.dcd
fix 1 all nvt temp ${initial_temperature} ${final_temperature} ${tau}
fix 1 all nvt temp 3 ${final_temperature} ${tau}
fix 1 all nvt temp 3 0.1 ${tau}
fix 1 all nvt temp 3 0.1 1

run ${run_steps}
run 100000
Generated 0 of 0 mixed pair_coeff terms from geometric mixing rule
Per MPI rank memory allocation (min/avg/max) = 3.077 | 3.077 | 3.077 Mbytes
   Step          Temp          E_pair         E_mol          TotEng         Press     
     50000   2.9950324      0.29152629     0              3.2790711      5.1915489    
     50500   2.7691173      0.31776392     0              3.0799585      5.6622671    
     51000   2.8661862      0.37446702     0              3.2334878      6.0053388    
     51500   2.7367904      0.32265378     0              3.0526022      5.4112114    
     52000   2.8443004      0.37588482     0              3.2130744      5.6435036    
     52500   2.8548346      0.2281695      0              3.075867       4.6381543    
     53000   2.7977505      0.31651098     0              3.1072671      5.3372432    
     53500   2.5394678      0.2395201      0              2.7726393      4.5021037    
     54000   2.7170259      0.28756796     0              2.9978013      4.7614801    
     54500   2.8586066      0.29182685     0              3.143287       5.2966748    
     55000   2.8383334      0.32523014     0              3.1564677      5.2956162    
     55500   2.9208177      0.30493422     0              3.2184499      5.2383388    
     56000   2.8505708      0.2859031      0              3.1293475      5.0576665    
     56500   3.0803759      0.15645783     0              3.2291327      3.9364559    
     57000   2.8657805      0.26513477     0              3.1237509      4.7000644    
     57500   2.9513033      0.32373312     0              3.2676582      5.4193162    
     58000   2.7703065      0.3136837      0              3.0770644      5.3179172    
     58500   2.929722       0.27123972     0              3.1936374      4.9057222    
     59000   3.0583897      0.39982259     0              3.4505663      5.9554375    
     59500   2.8238653      0.41209628     0              3.2289019      6.0741194    
     60000   2.64315        0.38054603     0              3.0170882      5.4825388    
     60500   2.7822582      0.29720734     0              3.0725099      5.0132438    
     61000   2.8303837      0.28124393     0              3.1045517      5.0533097    
     61500   2.6962452      0.28205487     0              2.9715594      5.0256581    
     62000   2.6699002      0.28681629     0              2.9500418      5.090009     
     62500   2.747004       0.28717062     0              3.0273071      5.3376282    
     63000   2.5688569      0.2360098      0              2.7984446      4.341485     
     63500   2.5775907      0.25039333     0              2.8215401      4.7934773    
     64000   2.4211758      0.25292573     0              2.6680486      4.3501412    
     64500   2.5482256      0.2570598      0              2.7989149      4.3819479    
     65000   2.5436884      0.25381573     0              2.7911449      4.4418026    
     65500   2.827523       0.27099539     0              3.0914495      4.9936979    
     66000   2.6451802      0.21672471     0              2.855292       4.3219742    
     66500   2.615967       0.26691309     0              2.8763402      4.5539218    
     67000   2.5021506      0.30306973     0              2.798965       4.8292437    
     67500   2.6779751      0.25369233     0              2.9249725      4.8326707    
     68000   2.7408184      0.26712841     0              3.0010948      4.7140888    
     68500   2.5460715      0.23503162     0              2.7747379      4.4655484    
     69000   2.5766804      0.33842432     0              2.908663       5.1952814    
     69500   2.5310934      0.23684872     0              2.7616144      4.3892152    
     70000   2.5126561      0.37253213     0              2.8789066      5.6546981    
     70500   2.4703328      0.19806661     0              2.6622236      4.0462875    
     71000   2.6386961      0.2140876      0              2.8461869      4.122492     
     71500   2.4165478      0.21202616     0              2.6225326      4.2622572    
     72000   2.3239665      0.27426647     0              2.592423       4.760163     
     72500   2.320449       0.18191699     0              2.4965649      3.8013056    
     73000   2.2175456      0.14522272     0              2.3572245      3.3525924    
     73500   2.2593529      0.30217083     0              2.5558754      5.0659235    
     74000   2.271505       0.22497909     0              2.4908053      3.9959474    
     74500   2.3222306      0.2306357      0              2.5470607      4.1009241    
     75000   2.1899104      0.19278318     0              2.3772188      3.9289654    
     75500   2.2319347      0.19708266     0              2.4234376      3.8586117    
     76000   2.225128       0.1619532      0              2.3815184      3.4854793    
     76500   2.1295691      0.17533502     0              2.2995802      3.6183578    
     77000   2.2189397      0.20226761     0              2.41566        3.9205257    
     77500   2.1994294      0.10189769     0              2.2958285      2.928868     
     78000   2.2250335      0.1678024      0              2.3872734      3.8042793    
     78500   2.2279331      0.19836226     0              2.4207255      3.9180337    
     79000   2.3077007      0.19691879     0              2.4988503      4.1729937    
     79500   2.2148963      0.18575247     0              2.3951115      3.7698822    
     80000   2.1699622      0.17909388     0              2.3436312      3.7549856    
     80500   2.1510362      0.22918369     0              2.3748423      4.1204422    
     81000   2.1868526      0.23474932     0              2.4161348      4.0734584    
     81500   2.2575332      0.15365586     0              2.4055453      3.5303209    
     82000   2.1468747      0.21773675     0              2.3592443      3.9536927    
     82500   2.0774644      0.22835773     0              2.3006285      3.8957054    
     83000   2.0602002      0.25487618     0              2.3099258      4.5052598    
     83500   2.0734242      0.19495665     0              2.2631972      3.8175782    
     84000   2.0089623      0.23009788     0              2.2340378      4.0504069    
     84500   1.8877648      0.10789931     0              1.9909447      2.77877      
     85000   1.8306946      0.16238806     0              1.9885059      3.4808648    
     85500   1.9094184      0.14281232     0              2.0474572      3.2932077    
     86000   1.882527       0.20765798     0              2.0854787      3.6952817    
     86500   1.8430961      0.14761766     0              1.986106       3.1693383    
     87000   1.9240425      0.16622397     0              2.0854563      3.4428303    
     87500   1.8423145      0.14140069     0              1.9791095      3.2229964    
     88000   1.8894875      0.17474361     0              2.0595074      3.6122153    
     88500   1.8803123      0.15786614     0              2.0334777      3.332661     
     89000   1.8231393      0.19545219     0              2.0140336      3.7486798    
     89500   1.8954595      0.11604279     0              2.0067636      2.8467182    
     90000   1.94049        0.13517467     0              2.0708135      3.080163     
     90500   1.8707619      0.12678815     0              1.9928732      2.9664966    
     91000   1.8338887      0.15978719     0              1.9890912      3.4443889    
     91500   1.8202903      0.1400934      0              1.955833       3.1476257    
     92000   1.8357302      0.10289158     0              1.9340324      2.768698     
     92500   1.694399       0.16031964     0              1.8504827      3.2557351    
     93000   1.5849594      0.15771808     0              1.7387151      3.1613745    
     93500   1.705379       0.13451856     0              1.8356341      2.9790238    
     94000   1.6778408      0.181917       0              1.8555632      3.3822899    
     94500   1.6980264      0.15701957     0              1.8508009      3.1688068    
     95000   1.6152724      0.12774938     0              1.7389836      2.9289858    
     95500   1.6573529      0.14096401     0              1.7941735      2.9832228    
     96000   1.5215848      0.19347455     0              1.7112554      3.6314358    
     96500   1.631616       0.14847917     0              1.7760161      3.1096232    
     97000   1.5482769      0.14314122     0              1.6875474      2.9283343    
     97500   1.6322027      0.12492849     0              1.7530507      2.9201065    
     98000   1.6663662      0.18401135     0              1.8462116      3.2962286    
     98500   1.6403446      0.13934394     0              1.7755877      3.0976557    
     99000   1.6233027      0.11518312     0              1.7344275      2.658912     
     99500   1.6247975      0.13246497     0              1.7532005      2.9381101    
    100000   1.690439       0.14152631     0              1.8277392      3.0672271    
    100500   1.5800354      0.14986866     0              1.725954       3.204192     
    101000   1.5206678      0.11525968     0              1.6321258      2.801876     
    101500   1.4964138      0.10623228     0              1.5989051      2.5436421    
    102000   1.4682212      0.11742064     0              1.5819712      2.6861808    
    102500   1.4745852      0.12954944     0              1.6004482      2.8128791    
    103000   1.4100533      0.12046291     0              1.5269911      2.6622422    
    103500   1.4468629      0.11338225     0              1.556628       2.6795104    
    104000   1.3584324      0.13596573     0              1.491002       2.7509242    
    104500   1.3286579      0.097648357    0              1.4229846      2.407027     
    105000   1.2700953      0.091169239    0              1.3580893      2.2639916    
    105500   1.3648586      0.1078753      0              1.4693218      2.4719328    
    106000   1.3387124      0.13054386     0              1.4659095      2.7565494    
    106500   1.3781955      0.114659       0              1.489409       2.6827737    
    107000   1.4046167      0.11462406     0              1.5157292      2.5693176    
    107500   1.5094036      0.12171425     0              1.6273444      2.6122404    
    108000   1.4611237      0.099781716    0              1.5572526      2.3365767    
    108500   1.3119436      0.12934794     0              1.4380117      2.6442969    
    109000   1.2823682      0.096554001    0              1.3757163      2.3137235    
    109500   1.2152514      0.10811702     0              1.3203303      2.4065863    
    110000   1.2421078      0.096295233    0              1.3352977      2.2343694    
    110500   1.2102164      0.078995549    0              1.2861865      1.9348203    
    111000   1.240311       0.088308722    0              1.3255189      2.2414226    
    111500   1.1632276      0.10035267     0              1.2606722      2.194977     
    112000   1.2291695      0.087298273    0              1.3133948      2.2577764    
    112500   1.2202516      0.098361704    0              1.3155626      2.2961023    
    113000   1.2836054      0.094561183    0              1.3749576      2.2152916    
    113500   1.1650453      0.084034387    0              1.2461671      2.0615281    
    114000   1.1798299      0.088319495    0              1.2651999      2.1325222    
    114500   1.0912017      0.14083078     0              1.2293045      2.6441915    
    115000   1.0888805      0.10485652     0              1.1910148      2.3208526    
    115500   1.03916        0.091717895    0              1.12828        2.1446024    
    116000   1.0112976      0.07307028     0              1.0818397      1.9010793    
    116500   1.069524       0.099988001    0              1.1668382      2.1206403    
    117000   1.0610299      0.10246756     0              1.1608448      2.253502     
    117500   1.0229984      0.078808864    0              1.0992498      1.9522736    
    118000   0.93356614     0.071310079    0              1.0025423      1.7680729    
    118500   0.95011457     0.047820731    0              0.99556002     1.4939133    
    119000   0.96283297     0.061130789    0              1.0215567      1.6660198    
    119500   0.99352198     0.057127795    0              1.048166       1.6130526    
    120000   0.90895002     0.091085414    0              0.99776306     2.0183947    
    120500   0.97603773     0.060920328    0              1.034518       1.6319994    
    121000   0.98671976     0.07480513     0              1.0590581      1.9184369    
    121500   0.9803016      0.10007028     0              1.0779211      2.2206793    
    122000   0.96572238     0.062245089    0              1.0255532      1.6280838    
    122500   0.91715963     0.063248561    0              0.97811529     1.70625      
    123000   0.9253204      0.065275297    0              0.98828239     1.6546031    
    123500   0.8234249      0.047837516    0              0.86920385     1.4558435    
    124000   0.80072386     0.063160736    0              0.86188278     1.6669832    
    124500   0.79889605     0.074092615    0              0.87099142     1.7807156    
    125000   0.77843756     0.054180679    0              0.83067215     1.4565836    
    125500   0.7909253      0.059595668    0              0.84854366     1.5340497    
    126000   0.78583895     0.058742082    0              0.84261644     1.5303324    
    126500   0.80850401     0.065587743    0              0.8720705      1.6030931    
    127000   0.83622557     0.051190354    0              0.88532536     1.4565003    
    127500   0.82747591     0.030220407    0              0.85562763     1.1334919    
    128000   0.70463001     0.048714023    0              0.75158246     1.4549712    
    128500   0.69071322     0.043857685    0              0.73284412     1.2658649    
    129000   0.68830305     0.043984708    0              0.730567       1.2839699    
    129500   0.67680428     0.042772959    0              0.71788523     1.2672867    
    130000   0.66012016     0.056579634    0              0.71504949     1.39858      
    130500   0.74103858     0.047555581    0              0.78674156     1.3447652    
    131000   0.7067182      0.042563624    0              0.74751503     1.3173265    
    131500   0.65340206     0.045049756    0              0.69681831     1.3240137    
    132000   0.61191366     0.027395915    0              0.63777979     0.95847962   
    132500   0.57114242     0.033588919    0              0.60330348     1.0846112    
    133000   0.54409029     0.023399075    0              0.56612914     0.93057811   
    133500   0.57434043     0.032919739    0              0.60582432     1.0199117    
    134000   0.56502351     0.041882637    0              0.60549359     1.1964122    
    134500   0.57425815     0.051149518    0              0.62397202     1.3060752    
    135000   0.5430074      0.033641343    0              0.57529122     1.0890467    
    135500   0.56446712     0.032440934    0              0.59549689     1.0003546    
    136000   0.5117398      0.044083399    0              0.55454385     1.1825924    
    136500   0.49633633     0.029894161    0              0.52498965     0.97001941   
    137000   0.48811249     0.0227564      0              0.50964861     0.85903673   
    137500   0.47465116     0.029354866    0              0.50281939     0.9937841    
    138000   0.43456036     0.019010179    0              0.45248414     0.71584037   
    138500   0.43259691     0.01850594     0              0.45002136     0.74029173   
    139000   0.38824514     0.034542996    0              0.42181753     0.9118771    
    139500   0.40033323     0.018131375    0              0.41746377     0.76317768   
    140000   0.39533779     0.016612994    0              0.41096244     0.66950926   
    140500   0.40438952     0.022853841    0              0.42623239     0.73468821   
    141000   0.4125929      0.019747906    0              0.43130932     0.75575328   
    141500   0.36666524     0.013190697    0              0.37893927     0.60570881   
    142000   0.33590446     0.016239646    0              0.35130434     0.64709414   
    142500   0.3034414      0.015582324    0              0.31826512     0.60731177   
    143000   0.29699002     0.018698117    0              0.31494567     0.70325516   
    143500   0.28790574     0.0091855188   0              0.29637149     0.45961717   
    144000   0.2835059      0.012731012    0              0.29552815     0.54986536   
    144500   0.27571312     0.014441239    0              0.28946507     0.58375469   
    145000   0.27332458     0.013047313    0              0.28568859     0.55317012   
    145500   0.23536536     0.007642989    0              0.24241994     0.43165949   
    146000   0.20963701     0.0066662011   0              0.21577912     0.37126233   
    146500   0.19315836     0.0057291474   0              0.19840461     0.34676191   
    147000   0.18201665     0.0093277892   0              0.1908894      0.411566     
    147500   0.16065533     0.009293836    0              0.16954753     0.38064461   
    148000   0.15396899     0.0054868424   0              0.15907091     0.29712818   
    148500   0.14683779     0.0052246638   0              0.15169536     0.30063289   
    149000   0.13724506     0.0042857841   0              0.14118773     0.28648827   
    149500   0.11533197     0.0042902717   0              0.11933392     0.27027225   
    150000   0.10536021     0.003112497    0              0.10820931     0.21948054   
Loop time of 1.35507 on 4 procs for 100000 steps with 400 atoms

Performance: 63760329.526 tau/day, 73796.678 timesteps/s, 29.519 Matom-step/s
99.3% CPU use with 4 MPI tasks x 1 OpenMP threads

MPI task timing breakdown:
Section |  min time  |  avg time  |  max time  |%varavg| %total
---------------------------------------------------------------
Pair    | 0.13628    | 0.13795    | 0.14002    |   0.4 | 10.18
Neigh   | 0.26197    | 0.2631     | 0.26431    |   0.2 | 19.42
Comm    | 0.56028    | 0.56203    | 0.56434    |   0.2 | 41.48
Output  | 0.011619   | 0.012014   | 0.013178   |   0.6 |  0.89
Modify  | 0.23467    | 0.23745    | 0.24217    |   0.6 | 17.52
Other   |            | 0.1425     |            |       | 10.52

Nlocal:            100 ave         104 max          95 min
Histogram: 1 0 0 0 1 0 0 1 0 1
Nghost:             45 ave          49 max          41 min
Histogram: 1 0 1 0 0 0 0 1 0 1
Neighs:            129 ave         137 max         121 min
Histogram: 1 0 1 0 0 0 0 1 0 1

Total # of neighbors = 516
Ave neighs/atom = 1.29
Neighbor list builds = 24649
Dangerous builds = 0
Total wall time: 0:00:02
