
Host: cs007.hpc.nyu.edu

Timers On : Tue Nov 15 14:32:17 2022
Timers Off: Tue Nov 15 14:32:18 2022

Wall Time:        0.35 seconds

                                                       Time (seconds)
Module                                       User      System        Wall        Calls

--------------------------------------------------------------------------------------

**************************************************************************************
