LAMMPS (15 Sep 2022)
OMP_NUM_THREADS environment is not set. Defaulting to 1 thread. (src/comm.cpp:98)
  using 1 OpenMP thread(s) per MPI task
Lattice spacing in x,y,z = 1.7099759 1.7099759 1.7099759
Created orthogonal box = (0 0 0) to (13.679808 13.679808 13.679808)
  1 by 2 by 2 MPI processor grid
Created 2048 atoms
  using lattice units in orthogonal box = (0 0 0) to (13.679808 13.679808 13.679808)
  create_atoms CPU = 0.000 seconds
Generated 0 of 0 mixed pair_coeff terms from geometric mixing rule
Neighbor list info ...
  update: every = 1 steps, delay = 0 steps, check = yes
  max neighbors/atom: 2000, page size: 100000
  master list distance cutoff = 1.3
  ghost atom cutoff = 1.3
  binsize = 0.65, bins = 22 22 22
  1 neighbor lists, perpetual/occasional/extra = 1 0 0
  (1) pair lj/cut, perpetual
      attributes: half, newton on
      pair build: half/bin/atomonly/newton
      stencil: half/bin/3d
      bin: standard
Setting up Verlet run ...
  Unit style    : lj
  Current step  : 0
  Time step     : 0.01
Per MPI rank memory allocation (min/avg/max) = 3.108 | 3.108 | 3.108 Mbytes
   Step          Temp          E_pair         E_mol          TotEng         Press     
         0   3              0              0              4.4978027      2.3988281    
       500   3.0498675      0.9555964      0              5.5281639      12.087123    
      1000   3.0236699      0.95639199     0              5.4896823      12.277219    
      1500   2.9770066      0.9387672      0              5.4020967      11.939446    
      2000   2.9638385      0.90812411     0              5.3517111      11.857945    
      2500   2.9553793      0.95006971     0              5.380974       12.110956    
      3000   3.0001423      0.89725059     0              5.3952666      11.788551    
      3500   2.9257939      1.0068354      0              5.3933834      12.473707    
      4000   2.9334713      0.93343851     0              5.3314969      12.012459    
      4500   2.9716566      0.96255717     0              5.4178655      12.162156    
      5000   3.0288812      0.94965453     0              5.490758       12.080089    
      5500   3.0092925      1.0327455      0              5.5444802      12.79374     
      6000   3.0620254      0.96544069     0              5.5562361      12.300058    
      6500   3.027332       0.96432007     0              5.5031008      12.284727    
      7000   3.0134797      1.0209244      0              5.5389368      12.691278    
      7500   3.0902797      1.0410454      0              5.6742016      12.900125    
      8000   3.0258925      1.0206104      0              5.5572329      12.584847    
      8500   3.0150865      0.95747209     0              5.4778935      12.108793    
      9000   2.9735042      0.97217542     0              5.4302539      12.170399    
      9500   2.9752538      0.91137463     0              5.3720761      11.790664    
     10000   2.9882747      0.92378167     0              5.404005       11.954258    
     10500   2.9478272      0.9637533      0              5.3833351      12.143317    
     11000   3.0317068      0.9092962      0              5.454636       11.716749    
     11500   3.0136488      0.98181664     0              5.5000825      12.418966    
     12000   2.9172826      0.97017942     0              5.3439667      12.22952     
     12500   2.9517661      0.94569376     0              5.3711809      12.186631    
     13000   2.9935039      0.94669455     0              5.4347578      12.068948    
     13500   2.9718035      0.91403798     0              5.3695666      11.897472    
     14000   2.9340038      0.99503326     0              5.3938901      12.280492    
     14500   3.0186093      0.92195015     0              5.4476532      11.856093    
     15000   3.0216637      0.96983631     0              5.5001187      12.334259    
     15500   3.0420102      0.92564446     0              5.4864318      11.898092    
     16000   3.0281485      0.98258616     0              5.522591       12.364391    
     16500   3.0402392      0.97915765     0              5.5372897      12.491278    
     17000   3.0530814      1.0221428      0              5.5995287      12.687906    
     17500   3.1142672      1.0654846      0              5.7346044      13.053705    
     18000   3.0089586      1.0360248      0              5.5472588      12.662508    
     18500   3.008674       1.0417936      0              5.552601       12.760446    
     19000   3.080638       0.99258222     0              5.6112829      12.515344    
     19500   3.054695       0.97928584     0              5.559091       12.350245    
     20000   3.0553172      0.94343435     0              5.5241724      12.035992    
     20500   3.0216121      0.97556694     0              5.505772       12.273282    
     21000   3.0409359      1.02504        0              5.5842166      12.697785    
     21500   3.0699021      1.0021126      0              5.6047172      12.630697    
     22000   3.0044097      0.97050223     0              5.4749162      12.338749    
     22500   2.9676678      0.892833       0              5.3421611      11.747835    
     23000   2.9429608      0.90739979     0              5.3196855      11.80194     
     23500   2.903998       0.93126723     0              5.2851373      11.845973    
     24000   2.9276573      0.94626033     0              5.335602       12.072864    
     24500   3.0098604      0.89988476     0              5.4124709      11.718224    
     25000   2.940653       0.96567125     0              5.3744969      12.082659    
     25500   2.9653793      0.94055621     0              5.3864532      11.967603    
     26000   2.9693316      0.98456325     0              5.4363858      12.290319    
     26500   3.028946       0.94675605     0              5.4879565      12.236129    
     27000   3.0793717      1.0316445      0              5.6484467      12.742524    
     27500   3.0410831      0.97678172     0              5.536179       12.31773     
     28000   3.1196661      0.99713012     0              5.6743444      12.548713    
     28500   3.0307862      0.91941226     0              5.4633718      11.915923    
     29000   2.9619445      1.0692159      0              5.5099633      12.972048    
     29500   3.0699093      0.92301563     0              5.5256311      12.042922    
     30000   2.9925634      0.93066566     0              5.4173189      11.954783    
     30500   2.9549387      0.991107       0              5.4213508      12.424718    
     31000   2.9053033      1.0007524      0              5.3565794      12.459996    
     31500   3.0121788      0.97279331     0              5.4888554      12.229086    
     32000   2.9639314      0.98162446     0              5.4253507      12.37497     
     32500   2.9985285      1.0243548      0              5.5199514      12.676698    
     33000   3.0077592      1.0426305      0              5.5520664      12.799522    
     33500   3.0811562      1.1351349      0              5.7546125      13.637373    
     34000   3.04513        1.0041845      0              5.5696492      12.620202    
     34500   3.0578985      0.96318581     0              5.5477939      12.30992     
     35000   3.1379271      0.9895487      0              5.694141       12.465931    
     35500   3.0377821      0.95025631     0              5.5047045      12.157822    
     36000   3.0509868      1.0202237      0              5.5944693      12.742723    
     36500   2.9174684      0.97683064     0              5.3508964      12.186582    
     37000   2.9743447      0.98292964     0              5.4422682      12.346121    
     37500   3.0348594      0.92830614     0              5.4783724      12.004101    
     38000   2.9544612      0.93071457     0              5.3602425      12.005624    
     38500   2.9679586      0.95899415     0              5.4087582      12.161168    
     39000   3.0298411      0.95413687     0              5.4966794      12.113514    
     39500   3.0500046      0.96009287     0              5.5328659      12.211358    
     40000   3.0227699      0.96150121     0              5.4934421      12.201488    
     40500   3.0354391      0.94133252     0              5.492268       12.148503    
     41000   2.9357364      0.93925963     0              5.340714       12.172291    
     41500   3.0160673      0.91777995     0              5.4396718      11.933824    
     42000   2.9714804      1.0138492      0              5.4688934      12.512689    
     42500   2.9359475      1.0048057      0              5.4065766      12.561725    
     43000   2.9545514      0.9814992      0              5.4111623      12.310041    
     43500   2.9085721      0.99601702     0              5.3567448      12.206591    
     44000   2.9605278      0.97437407     0              5.4129974      12.147332    
     44500   2.9798594      0.976236       0              5.4438426      12.357146    
     45000   3.0002329      0.91801239     0              5.4161643      11.899942    
     45500   2.9962061      0.93192834     0              5.424043       12.096353    
     46000   2.9502427      1.0150241      0              5.4382272      12.43376     
     46500   3.0142314      0.99432319     0              5.5134626      12.518415    
     47000   3.0129487      0.99180818     0              5.5090245      12.605347    
     47500   2.971586       1.0440862      0              5.4992888      12.815289    
     48000   3.0003894      0.98923334     0              5.4876199      12.280603    
     48500   2.9825978      1.0049154      0              5.4766276      12.536758    
     49000   3.0520276      1.0165688      0              5.5923747      12.578859    
     49500   3.0521551      0.98699661     0              5.5629937      12.568671    
     50000   3.0430669      0.9452886      0              5.5076601      12.094715    
Loop time of 7.37057 on 4 procs for 50000 steps with 2048 atoms

Performance: 5861145.784 tau/day, 6783.734 timesteps/s, 13.893 Matom-step/s
99.1% CPU use with 4 MPI tasks x 1 OpenMP threads

MPI task timing breakdown:
Section |  min time  |  avg time  |  max time  |%varavg| %total
---------------------------------------------------------------
Pair    | 0.87047    | 0.87488    | 0.8785     |   0.4 | 11.87
Neigh   | 4.4316     | 4.4373     | 4.4462     |   0.3 | 60.20
Comm    | 1.4111     | 1.4186     | 1.4255     |   0.5 | 19.25
Output  | 0.0018289  | 0.0023591  | 0.0039441  |   1.9 |  0.03
Modify  | 0.40465    | 0.40939    | 0.41732    |   0.7 |  5.55
Other   |            | 0.228      |            |       |  3.09

Nlocal:            512 ave         519 max         507 min
Histogram: 2 0 0 0 0 1 0 0 0 1
Nghost:         649.25 ave         664 max         637 min
Histogram: 1 0 1 0 0 1 0 0 0 1
Neighs:         1868.5 ave        1889 max        1855 min
Histogram: 2 0 0 0 0 1 0 0 0 1

Total # of neighbors = 7474
Ave neighs/atom = 3.6494141
Neighbor list builds = 20214
Dangerous builds = 0
Generated 0 of 0 mixed pair_coeff terms from geometric mixing rule
Setting up Verlet run ...
  Unit style    : lj
  Current step  : 50000
  Time step     : 0.01
Per MPI rank memory allocation (min/avg/max) = 3.182 | 3.182 | 3.182 Mbytes
   Step          Temp          E_pair         E_mol          TotEng         Press     
     50000   3.0430669      0.9452886      0              5.5076601      12.094715    
     50500   3.0545127      0.94619708     0              5.5257289      12.219132    
     51000   3.0416771      1.0446061      0              5.6048939      12.906443    
     51500   2.9887439      0.98798737     0              5.4689142      12.475275    
     52000   2.956528       1.0444922      0              5.4771188      12.843713    
     52500   2.9120012      0.90279869     0              5.2686676      11.624817    
     53000   2.8837724      0.96401326     0              5.2875597      12.246321    
     53500   2.8832698      0.88742302     0              5.2102159      11.502852    
     54000   2.8667601      0.87040386     0              5.1684443      11.360174    
     54500   2.8805311      0.86982556     0              5.1885124      11.393547    
     55000   2.8710567      0.97386751     0              5.2783497      12.25011     
     55500   2.8730036      0.95306347     0              5.2604647      11.931228    
     56000   2.8233501      0.96668169     0              5.1996389      12.067607    
     56500   2.8691474      0.87970763     0              5.1813274      11.426933    
     57000   2.8759688      0.91464393     0              5.2264907      11.847597    
     57500   2.7427644      0.89757347     0              5.0097112      11.521808    
     58000   2.7359211      0.89208019     0              4.993958       11.457679    
     58500   2.6963186      0.84312493     0              4.8856279      10.979641    
     59000   2.7198819      0.84721601     0              4.9250468      11.189614    
     59500   2.7281792      0.84237089     0              4.9326415      11.161773    
     60000   2.6501351      0.85449721     0              4.8277588      11.106031    
     60500   2.6610817      0.90779181     0              4.8974654      11.59211     
     61000   2.6738526      0.86157745     0              4.8703979      11.260322    
     61500   2.6900453      0.83655849     0              4.8696562      11.08548     
     62000   2.6661385      0.90395631     0              4.9012114      11.563102    
     62500   2.7308118      0.8609768      0              4.9551944      11.216825    
     63000   2.6329642      0.8053423      0              4.7528602      10.625668    
     63500   2.5784558      0.91915596     0              4.7849511      11.428549    
     64000   2.5814924      0.88080906     0              4.7511569      11.27433     
     64500   2.6472999      0.82878116     0              4.797792       10.911585    
     65000   2.5584095      0.85008333     0              4.6858238      10.987859    
     65500   2.6409349      0.81793126     0              4.7773994      10.755144    
     66000   2.5572685      0.80274434     0              4.6367741      10.678692    
     66500   2.577389       0.86688193     0              4.7310777      11.131827    
     67000   2.5149533      0.74821609     0              4.5188041      10.243934    
     67500   2.5110622      0.75503615     0              4.5197902      10.355051    
     68000   2.5240647      0.755809       0              4.5400573      10.254127    
     68500   2.522948       0.74506252     0              4.5276367      10.19618     
     69000   2.499463       0.72840231     0              4.4757661      10.032561    
     69500   2.4520955      0.70828412     0              4.3846315      9.8424458    
     70000   2.4826296      0.70886968     0              4.4309957      9.8727821    
     70500   2.4050035      0.76550174     0              4.3712455      10.207585    
     71000   2.4296353      0.78492653     0              4.4276         10.458829    
     71500   2.4021723      0.75611415     0              4.3576132      10.152577    
     72000   2.3846525      0.74959006     0              4.3248222      10.029881    
     72500   2.3585004      0.71952399     0              4.2555472      9.822346     
     73000   2.3320752      0.74829023     0              4.2446949      9.8870216    
     73500   2.2379545      0.63892466     0              3.9942173      9.0237324    
     74000   2.2469342      0.72081201     0              4.0895676      9.7646775    
     74500   2.2598783      0.71116997     0              4.0993323      9.6312161    
     75000   2.2650603      0.70051747     0              4.096449       9.6746105    
     75500   2.2171858      0.699556       0              4.0237108      9.5442854    
     76000   2.2484237      0.70213459     0              4.0731233      9.6346852    
     76500   2.2668154      0.7399172      0              4.13848        9.9124121    
     77000   2.260464       0.68150783     0              4.0705481      9.4112496    
     77500   2.2539805      0.66644301     0              4.0457629      9.4020505    
     78000   2.1542697      0.666403       0              3.8962297      9.214787     
     78500   2.1723951      0.63688307     0              3.8938847      8.8514485    
     79000   2.1380815      0.68827637     0              3.8938327      9.3470259    
     79500   2.1302114      0.65228326     0              3.8460402      9.113961     
     80000   2.1197125      0.66915133     0              3.8471675      9.4071647    
     80500   2.0792271      0.63263825     0              3.7499561      8.9752125    
     81000   2.0283347      0.61654284     0              3.6575593      8.7328984    
     81500   2.0276957      0.63344343     0              3.6735018      8.9195155    
     82000   2.0568915      0.60387543     0              3.6877062      8.6135911    
     82500   2.066656       0.59498993     0              3.6934602      8.6128055    
     83000   1.9820017      0.6061295      0              3.5776804      8.6516769    
     83500   2.0081974      0.62002732     0              3.6308526      8.781676     
     84000   1.9695065      0.63547353     0              3.5882908      8.7647258    
     84500   1.9764796      0.58528504     0              3.5485569      8.4166966    
     85000   1.9823449      0.59068982     0              3.5627553      8.547893     
     85500   1.962871       0.63438115     0              3.5772499      8.8204804    
     86000   1.9787648      0.61976285     0              3.5864608      8.749776     
     86500   1.9812935      0.59769162     0              3.5681807      8.6330829    
     87000   1.9477976      0.61482767     0              3.5350975      8.7624807    
     87500   1.920194       0.59344725     0              3.4723318      8.4671724    
     88000   1.9130483      0.56865606     0              3.4368273      8.3003442    
     88500   1.9059898      0.64791834     0              3.5055071      8.9874402    
     89000   1.9219429      0.55189805     0              3.4334048      8.085328     
     89500   1.8685035      0.57322755     0              3.3746142      8.2509457    
     90000   1.8768819      0.53725824     0              3.3512064      8.0020442    
     90500   1.8442629      0.57808176     0              3.3431253      8.2434274    
     91000   1.818828       0.54832808     0              3.275238       8.0899262    
     91500   1.8358176      0.5234022      0              3.2757841      7.88701      
     92000   1.8356748      0.54018608     0              3.2923538      8.0389201    
     92500   1.8252985      0.4868251      0              3.223436       7.4563227    
     93000   1.8262053      0.50628046     0              3.2442508      7.7728771    
     93500   1.7610501      0.55252747     0              3.1928127      8.0254223    
     94000   1.7246532      0.5095367      0              3.0952534      7.5401445    
     94500   1.6940649      0.52334407     0              3.0632006      7.7145583    
     95000   1.7057077      0.50694467     0              3.064257       7.5444089    
     95500   1.7339809      0.47151304     0              3.0712144      7.2046338    
     96000   1.6655341      0.50539255     0              3.0024739      7.5085637    
     96500   1.6570014      0.50296404     0              2.9872525      7.5157184    
     97000   1.6636866      0.49503931     0              2.9893507      7.3584513    
     97500   1.6428804      0.47221449     0              2.9353317      7.2080713    
     98000   1.5932735      0.48332025     0              2.8720636      7.3085368    
     98500   1.5597824      0.52583975     0              2.8643709      7.5918798    
     99000   1.5937411      0.44902372     0              2.838468       7.0368397    
     99500   1.5572004      0.48528288     0              2.8199429      7.2939269    
    100000   1.5732658      0.46382052     0              2.822567       7.0726217    
    100500   1.5355162      0.45640948     0              2.7585592      7.0968813    
    101000   1.532367       0.45549478     0              2.752923       7.0021092    
    101500   1.5192451      0.40962315     0              2.687378       6.6445184    
    102000   1.4691603      0.41732428     0              2.6199887      6.5197       
    102500   1.4393218      0.41666593     0              2.5745945      6.6190505    
    103000   1.4261804      0.3921715      0              2.5303976      6.3484798    
    103500   1.4287503      0.40636277     0              2.5484417      6.3318241    
    104000   1.443854       0.38355909     0              2.5482826      6.2974545    
    104500   1.3972584      0.39528187     0              2.4901461      6.3616116    
    105000   1.4159901      0.39233783     0              2.5152859      6.2970048    
    105500   1.3910906      0.41693722     0              2.5025542      6.4975436    
    106000   1.3715507      0.37826361     0              2.4345852      6.25549      
    106500   1.3645312      0.32173487     0              2.3675323      5.6304287    
    107000   1.3114223      0.36645234     0              2.3326253      5.9963682    
    107500   1.3058541      0.35548419     0              2.3133089      5.8815172    
    108000   1.2970935      0.37493658     0              2.3196268      6.0973257    
    108500   1.2884319      0.38589712     0              2.3176014      6.1216873    
    109000   1.3114613      0.35702229     0              2.3232537      5.8870788    
    109500   1.2722882      0.36371438     0              2.2712148      5.9495344    
    110000   1.3010198      0.35185178     0              2.3024286      5.9269247    
    110500   1.2707258      0.34233106     0              2.2474891      5.7243478    
    111000   1.2457512      0.33439643     0              2.2021108      5.6252241    
    111500   1.2096415      0.34132523     0              2.1549015      5.738495     
    112000   1.2152471      0.30674332     0              2.1287239      5.3391364    
    112500   1.1831974      0.33360979     0              2.1075394      5.5802682    
    113000   1.2031355      0.30980692     0              2.113629       5.3482596    
    113500   1.1675457      0.30456578     0              2.0550292      5.2509388    
    114000   1.1497926      0.29779706     0              2.0216438      5.1842643    
    114500   1.1134905      0.32121319     0              1.9906334      5.3784981    
    115000   1.1222311      0.28192035     0              1.964445       5.0018114    
    115500   1.0926458      0.3056682      0              1.9438366      5.2496579    
    116000   1.0620651      0.28191007     0              1.8742298      4.9813597    
    116500   1.0588347      0.27587292     0              1.8633494      4.8908496    
    117000   1.0358942      0.28018897     0              1.8332715      4.8794373    
    117500   1.0241596      0.27943739     0              1.8149268      4.9107785    
    118000   1.0126839      0.28264876     0              1.8009328      4.9045025    
    118500   1.0157581      0.27241898     0              1.7953122      4.8229819    
    119000   1.0252412      0.2445777      0              1.7816887      4.5280348    
    119500   0.99008413     0.25640833     0              1.7408094      4.7499724    
    120000   0.99414489     0.25605391     0              1.7465431      4.7109737    
    120500   0.98170041     0.28310996     0              1.7549416      4.9484076    
    121000   0.94637893     0.24343856     0              1.6623138      4.4319601    
    121500   0.94388458     0.24517525     0              1.6603108      4.4914413    
    122000   0.88977633     0.22864505     0              1.5626579      4.3219339    
    122500   0.88615053     0.24177916     0              1.5703559      4.3718828    
    123000   0.8621332      0.22877729     0              1.5213456      4.2481948    
    123500   0.87532712     0.20854334     0              1.5208929      4.1241339    
    124000   0.85368837     0.21755599     0              1.4974633      4.1158497    
    124500   0.84272256     0.19828603     0              1.4617526      3.9029288    
    125000   0.80577138     0.20708054     0              1.4151474      3.9538407    
    125500   0.80608696     0.20741542     0              1.4159555      4.0147582    
    126000   0.80762466     0.20370216     0              1.4145476      3.9764277    
    126500   0.79860863     0.19267197     0              1.39           3.7869875    
    127000   0.78643075     0.18757351     0              1.3666436      3.8008867    
    127500   0.74520316     0.18194651     0              1.2992054      3.6709133    
    128000   0.73462168     0.17411849     0              1.275513       3.5416266    
    128500   0.70771114     0.17186548     0              1.2329139      3.511013     
    129000   0.71614303     0.15785314     0              1.2315432      3.3130999    
    129500   0.70277804     0.17425741     0              1.2279097      3.5736027    
    130000   0.67592414     0.16622432     0              1.1796155      3.4109976    
    130500   0.67958257     0.15733655     0              1.1762127      3.2992576    
    131000   0.63475615     0.14736187     0              1.0990312      3.1005595    
    131500   0.63506796     0.14745501     0              1.0995918      3.1560754    
    132000   0.63470076     0.1456103      0              1.0971966      3.1562577    
    132500   0.61105139     0.14957002     0              1.0656995      3.1995523    
    133000   0.59940197     0.13422629     0              1.0328902      2.985836     
    133500   0.56556703     0.12370098     0              0.97163729     2.7926314    
    134000   0.56022575     0.13015362     0              0.97008193     2.8821042    
    134500   0.56323738     0.13124132     0              0.97568487     2.8274125    
    135000   0.52480072     0.12070642     0              0.90752313     2.7164495    
    135500   0.52436254     0.11150335     0              0.8976631      2.5702516    
    136000   0.50611475     0.11457472     0              0.87337615     2.6608735    
    136500   0.48652122     0.11425265     0              0.84367814     2.6080802    
    137000   0.48417462     0.10269103     0              0.82859834     2.4487892    
    137500   0.45435603     0.09246938     0              0.77367065     2.2979675    
    138000   0.45792403     0.084313929    0              0.77086457     2.1426728    
    138500   0.45108609     0.088598603    0              0.76489736     2.2307957    
    139000   0.41748828     0.076873401    0              0.70280004     2.0327297    
    139500   0.4015167      0.08917887     0              0.69115985     2.155516     
    140000   0.39002603     0.074331313    0              0.65908469     1.9384836    
    140500   0.37234733     0.076097375    0              0.63434565     1.9532998    
    141000   0.37281843     0.073688429    0              0.63264302     1.9738233    
    141500   0.33829178     0.069751389    0              0.57694129     1.8613179    
    142000   0.32923196     0.062428373    0              0.55603517     1.743467     
    142500   0.31629067     0.058079277    0              0.53228363     1.6299534    
    143000   0.300333       0.059947076    0              0.51022661     1.6465835    
    143500   0.30020267     0.053134827    0              0.50321896     1.5567359    
    144000   0.27359272     0.044626141    0              0.45481484     1.3785791    
    144500   0.25976642     0.050398358    0              0.43985772     1.4935508    
    145000   0.24160966     0.042103035    0              0.40434056     1.3344341    
    145500   0.22736793     0.038685121    0              0.37957048     1.23064      
    146000   0.22123932     0.031661099    0              0.36335803     1.0855057    
    146500   0.20046274     0.03278907     0              0.33333636     1.1188667    
    147000   0.18617842     0.029191313    0              0.30832258     1.0185882    
    147500   0.17408874     0.027448138    0              0.28845374     0.96416751   
    148000   0.1599322      0.0208744      0              0.26065557     0.81462845   
    148500   0.14417062     0.021982368    0              0.2381327      0.83756158   
    149000   0.13095215     0.017185989    0              0.2135183      0.71209184   
    149500   0.11639308     0.014592927    0              0.1890973      0.6219128    
    150000   0.10191551     0.012515529    0              0.16531415     0.5587515    
Loop time of 11.535 on 4 procs for 100000 steps with 2048 atoms

Performance: 7490240.272 tau/day, 8669.260 timesteps/s, 17.755 Matom-step/s
99.0% CPU use with 4 MPI tasks x 1 OpenMP threads

MPI task timing breakdown:
Section |  min time  |  avg time  |  max time  |%varavg| %total
---------------------------------------------------------------
Pair    | 1.555      | 1.5628     | 1.5696     |   0.5 | 13.55
Neigh   | 6.2247     | 6.239      | 6.2465     |   0.4 | 54.09
Comm    | 2.4115     | 2.4245     | 2.4424     |   0.8 | 21.02
Output  | 0.11526    | 0.11622    | 0.11905    |   0.5 |  1.01
Modify  | 0.79653    | 0.80115    | 0.80866    |   0.5 |  6.95
Other   |            | 0.3914     |            |       |  3.39

Nlocal:            512 ave         520 max         504 min
Histogram: 1 1 0 0 0 0 0 0 1 1
Nghost:            645 ave         657 max         639 min
Histogram: 1 1 1 0 0 0 0 0 0 1
Neighs:           1979 ave        2076 max        1913 min
Histogram: 1 1 0 0 1 0 0 0 0 1

Total # of neighbors = 7916
Ave neighs/atom = 3.8652344
Neighbor list builds = 28455
Dangerous builds = 0
Total wall time: 0:00:18
LAMMPS (15 Sep 2022)
OMP_NUM_THREADS environment is not set. Defaulting to 1 thread. (src/comm.cpp:98)
  using 1 OpenMP thread(s) per MPI task
Lattice spacing in x,y,z = 1.6441414 1.6441414 1.6441414
Created orthogonal box = (0 0 0) to (13.153131 13.153131 13.153131)
  2 by 1 by 2 MPI processor grid
Created 2048 atoms
  using lattice units in orthogonal box = (0 0 0) to (13.153131 13.153131 13.153131)
  create_atoms CPU = 0.001 seconds
Generated 0 of 0 mixed pair_coeff terms from geometric mixing rule
Neighbor list info ...
  update: every = 1 steps, delay = 0 steps, check = yes
  max neighbors/atom: 2000, page size: 100000
  master list distance cutoff = 1.3
  ghost atom cutoff = 1.3
  binsize = 0.65, bins = 21 21 21
  1 neighbor lists, perpetual/occasional/extra = 1 0 0
  (1) pair lj/cut, perpetual
      attributes: half, newton on
      pair build: half/bin/atomonly/newton
      stencil: half/bin/3d
      bin: standard
Setting up Verlet run ...
  Unit style    : lj
  Current step  : 0
  Time step     : 0.01
Per MPI rank memory allocation (min/avg/max) = 3.103 | 3.103 | 3.103 Mbytes
   Step          Temp          E_pair         E_mol          TotEng         Press     
         0   3              0              0              4.4978027      2.6986816    
       500   3.0498679      1.4433268      0              6.0158948      18.451102    
      1000   3.0940626      1.278864       0              5.9176917      17.367775    
      1500   2.9878814      1.3596062      0              5.8392398      18.028012    
      2000   3.0537676      1.2897163      0              5.868131       17.410451    
      2500   3.0125658      1.3537879      0              5.8704302      17.942518    
      3000   3.0770487      1.4085643      0              6.0218836      18.351375    
      3500   3.0154973      1.2873819      0              5.8084192      17.273952    
      4000   3.0602521      1.347438       0              5.9355748      17.876366    
      4500   2.987718       1.3574887      0              5.8368774      17.776879    
      5000   3.040808       1.4250211      0              5.984006       18.480431    
      5500   3.0755768      1.3187038      0              5.9298164      17.833931    
      6000   2.9693299      1.3202291      0              5.7720492      17.768428    
      6500   2.9366819      1.3346678      0              5.7375398      17.356637    
      7000   3.0415411      1.1912088      0              5.7512927      16.764797    
      7500   2.9102603      1.4011592      0              5.764418       18.249982    
      8000   3.0169         1.2693555      0              5.7924957      17.056808    
      8500   2.9881956      1.3129392      0              5.7930439      17.565127    
      9000   3.0239874      1.3053676      0              5.8391338      17.477709    
      9500   3.0210134      1.3437725      0              5.8730799      17.832099    
     10000   3.0910479      1.3240404      0              5.9583484      17.691079    
     10500   3.0573051      1.3223058      0              5.9060242      17.827939    
     11000   2.9751237      1.3820542      0              5.8425607      17.954925    
     11500   2.9258587      1.3996122      0              5.7862572      18.171021    
     12000   2.945685       1.2710751      0              5.6874451      17.261617    
     12500   2.9741573      1.3191267      0              5.7781843      17.629537    
     13000   3.0272658      1.2228601      0              5.7615415      16.698762    
     13500   3.025415       1.2875304      0              5.8234371      17.376835    
     14000   2.9165194      1.3722392      0              5.7448822      17.937673    
     14500   3.0047288      1.3278508      0              5.8327432      17.783405    
     15000   3.1020934      1.3325162      0              5.9833842      17.732577    
     15500   3.0082469      1.2976587      0              5.8078257      17.342804    
     16000   3.0484877      1.3250777      0              5.8955765      17.581838    
     16500   2.9747015      1.2768366      0              5.73671        17.211898    
     17000   2.971554       1.2757533      0              5.7309079      17.130422    
     17500   2.9092418      1.3840765      0              5.7458084      17.842774    
     18000   3.0204469      1.289838       0              5.8182962      17.382754    
     18500   3.0135054      1.3751189      0              5.8931698      17.929015    
     19000   3.0446436      1.3316205      0              5.896356       17.841742    
     19500   3.0684646      1.2666828      0              5.8671323      17.222295    
     20000   3.0961353      1.2464171      0              5.8883523      17.399576    
     20500   3.1345447      1.2906868      0              5.990208       17.356271    
     21000   3.0827253      1.3143133      0              5.9361434      17.682626    
     21500   3.0357843      1.3593001      0              5.9107532      17.970355    
     22000   3.1020787      1.3777039      0              6.0285499      17.980663    
     22500   3.0102326      1.333591       0              5.8467352      17.660112    
     23000   3.1271389      1.3185464      0              6.0069643      17.67601     
     23500   2.9870246      1.2229085      0              5.7012576      17.030355    
     24000   2.9960132      1.3436657      0              5.8354912      17.854643    
     24500   3.0538574      1.3122284      0              5.8907778      17.591584    
     25000   2.9798133      1.3387364      0              5.8062739      17.59501     
     25500   3.0201015      1.3327579      0              5.8606983      17.609621    
     26000   3.0240774      1.4084987      0              5.9423998      18.336177    
     26500   3.0608582      1.370317       0              5.9593625      18.189956    
     27000   3.0417968      1.3396962      0              5.9001636      17.94334     
     27500   3.0020065      1.277944       0              5.778755       17.338376    
     28000   2.9322329      1.3416152      0              5.737817       17.736982    
     28500   2.9539532      1.3036585      0              5.7324247      17.442238    
     29000   3.016833       1.3029986      0              5.8260385      17.375655    
     29500   3.0174136      1.3676664      0              5.8915768      17.886036    
     30000   3.0624675      1.3471185      0              5.9385768      17.985147    
     30500   2.9872289      1.3580944      0              5.8367498      17.944106    
     31000   2.9472936      1.2947573      0              5.713539       17.300577    
     31500   2.9917927      1.3047649      0              5.7902626      17.482206    
     32000   2.9652293      1.2774027      0              5.7230748      17.203504    
     32500   3.0027401      1.2606504      0              5.7625614      16.984709    
     33000   2.9559427      1.3668946      0              5.7986437      17.911516    
     33500   2.9441778      1.3005512      0              5.7146615      17.474201    
     34000   2.9677226      1.3325409      0              5.7819511      17.732563    
     34500   2.9798166      1.3419462      0              5.8094887      17.729253    
     35000   2.9353065      1.3837846      0              5.7845944      18.085473    
     35500   2.8881823      1.3842425      0              5.7144006      17.975022    
     36000   2.9690034      1.3461707      0              5.7975013      17.870943    
     36500   2.9657854      1.3405088      0              5.7870147      17.857521    
     37000   3.0249571      1.3427331      0              5.8779532      17.706842    
     37500   3.1244754      1.2828565      0              5.9672811      17.379023    
     38000   3.024446       1.4092325      0              5.9436862      18.370127    
     38500   2.9943583      1.335523       0              5.8248674      17.810556    
     39000   2.8647188      1.42721        0              5.72219        18.348581    
     39500   2.9441348      1.3471714      0              5.7612172      17.841271    
     40000   3.028304       1.2696762      0              5.8099142      17.416804    
     40500   2.978324       1.3535138      0              5.8188184      17.85578     
     41000   3.0920665      1.3480586      0              5.9838936      17.966335    
     41500   2.9068591      1.3445886      0              5.7027482      17.554234    
     42000   3.0597787      1.2677268      0              5.8551538      17.10565     
     42500   3.0428729      1.3622803      0              5.924361       17.825322    
     43000   3.0300065      1.3536251      0              5.8964157      17.864461    
     43500   3.038293       1.3367681      0              5.8919822      17.702101    
     44000   3.0222484      1.3153964      0              5.8465555      17.578641    
     44500   3.0940489      1.3500471      0              5.9888543      17.879691    
     45000   2.9539323      1.3465012      0              5.7752361      17.726961    
     45500   2.9600642      1.3061545      0              5.7440828      17.336439    
     46000   3.0762439      1.2869228      0              5.8990356      17.237033    
     46500   2.9801236      1.3434444      0              5.811447       17.654858    
     47000   2.9565758      1.2661957      0              5.6988941      17.19162     
     47500   3.0144513      1.2298334      0              5.7493026      16.816555    
     48000   2.9986749      1.3045271      0              5.8003432      17.459755    
     48500   2.9972147      1.3648841      0              5.858511       17.931499    
     49000   3.0682044      1.3699265      0              5.9699859      17.927363    
     49500   2.9294565      1.3218213      0              5.7138606      17.489641    
     50000   2.9447175      1.3885889      0              5.8035083      18.105485    
Loop time of 7.95557 on 4 procs for 50000 steps with 2048 atoms

Performance: 5430159.064 tau/day, 6284.906 timesteps/s, 12.871 Matom-step/s
99.2% CPU use with 4 MPI tasks x 1 OpenMP threads

MPI task timing breakdown:
Section |  min time  |  avg time  |  max time  |%varavg| %total
---------------------------------------------------------------
Pair    | 1.0317     | 1.0369     | 1.0439     |   0.5 | 13.03
Neigh   | 4.8245     | 4.8402     | 4.8503     |   0.5 | 60.84
Comm    | 1.4207     | 1.4383     | 1.4586     |   1.1 | 18.08
Output  | 0.0018243  | 0.002382   | 0.0040477  |   2.0 |  0.03
Modify  | 0.40831    | 0.41091    | 0.4136     |   0.3 |  5.17
Other   |            | 0.2268     |            |       |  2.85

Nlocal:            512 ave         515 max         507 min
Histogram: 1 0 0 0 0 0 0 2 0 1
Nghost:         678.75 ave         686 max         671 min
Histogram: 1 0 1 0 0 0 0 0 1 1
Neighs:        2163.25 ave        2205 max        2122 min
Histogram: 1 0 0 1 0 1 0 0 0 1

Total # of neighbors = 8653
Ave neighs/atom = 4.2250977
Neighbor list builds = 20243
Dangerous builds = 0
Generated 0 of 0 mixed pair_coeff terms from geometric mixing rule
Setting up Verlet run ...
  Unit style    : lj
  Current step  : 50000
  Time step     : 0.01
Per MPI rank memory allocation (min/avg/max) = 3.177 | 3.178 | 3.178 Mbytes
   Step          Temp          E_pair         E_mol          TotEng         Press     
     50000   2.9447175      1.3885889      0              5.8035083      18.105485    
     50500   3.0126151      1.3401498      0              5.8568659      17.920101    
     51000   2.9208683      1.2935927      0              5.6727558      17.416948    
     51500   2.9614962      1.2671797      0              5.7072549      17.166058    
     52000   2.9446337      1.3010576      0              5.7158514      17.385133    
     52500   2.8832202      1.3575982      0              5.6803167      17.76737     
     53000   3.0363122      1.2603094      0              5.8125538      17.199986    
     53500   2.9080932      1.2011392      0              5.5611491      16.603104    
     54000   2.9463122      1.1882823      0              5.6055927      16.488874    
     54500   2.8415283      1.2926456      0              5.5528569      17.149748    
     55000   2.8047077      1.2892245      0              5.4942318      17.006521    
     55500   2.7775253      1.2379698      0              5.4022235      16.751923    
     56000   2.8468634      1.151179       0              5.419389       16.031865    
     56500   2.8112076      1.217208       0              5.4319605      16.593375    
     57000   2.8181889      1.2476544      0              5.4728736      16.697481    
     57500   2.6984653      1.3037822      0              5.3495038      17.209033    
     58000   2.8040312      1.1632999      0              5.3672929      16.041933    
     58500   2.7405088      1.1200123      0              5.2287683      15.620951    
     59000   2.7294398      1.2187476      0              5.3109082      16.428941    
     59500   2.7526659      1.2243899      0              5.3513727      16.702325    
     60000   2.672312       1.2101389      0              5.2166496      16.373756    
     60500   2.6656959      1.1247212      0              5.1213126      15.515456    
     61000   2.6637525      1.1883011      0              5.1819788      16.31885     
     61500   2.6998995      1.210232       0              5.2581038      16.474924    
     62000   2.6213092      1.2200557      0              5.1500997      16.561967    
     62500   2.6985571      1.156587       0              5.2024461      16.085284    
     63000   2.5781137      1.145342       0              5.0106243      15.78911     
     63500   2.6032055      1.1473299      0              5.0502315      15.899816    
     64000   2.5677494      1.1359535      0              4.985697       15.614987    
     64500   2.6234449      1.0551013      0              4.9883472      15.082235    
     65000   2.6132339      1.1166737      0              5.0346105      15.60736     
     65500   2.6313808      1.0746111      0              5.019755       15.15666     
     66000   2.4791411      1.1397841      0              4.85668        15.648995    
     66500   2.45727        1.0809819      0              4.7650871      15.019481    
     67000   2.4464598      1.1295176      0              4.7974154      15.457858    
     67500   2.4427605      1.1225488      0              4.7849004      15.422203    
     68000   2.4360323      0.98502074     0              4.637285       14.228226    
     68500   2.4376877      1.0381654      0              4.6929115      14.80976     
     69000   2.4495371      1.0489661      0              4.7214777      14.937882    
     69500   2.4687515      1.0824575      0              4.7837767      15.216928    
     70000   2.415829       1.0527538      0              4.674728       14.900772    
     70500   2.3962321      1.0271477      0              4.6197408      14.652638    
     71000   2.3511502      0.95101933     0              4.4760226      13.933658    
     71500   2.3603946      1.0053006      0              4.5441637      14.455641    
     72000   2.3399002      1.0210958      0              4.5292323      14.549269    
     72500   2.2664253      1.0504414      0              4.4484194      14.606649    
     73000   2.3021497      1.0222634      0              4.4738019      14.508675    
     73500   2.2911137      0.97622464     0              4.4112171      13.949591    
     74000   2.3347199      0.94239746     0              4.4427673      13.977772    
     74500   2.3219715      1.0165122      0              4.4977687      14.466077    
     75000   2.3354327      0.96827094     0              4.4697094      14.13399     
     75500   2.2696016      0.98011629     0              4.3828563      14.276671    
     76000   2.3263468      0.92335877     0              4.4111751      13.63052     
     76500   2.2254039      0.99469018     0              4.331166       14.260168    
     77000   2.2699858      0.95593457     0              4.3592507      13.924939    
     77500   2.2027511      0.91955492     0              4.2220682      13.48799     
     78000   2.1635486      0.98080832     0              4.2245465      13.857895    
     78500   2.1852388      0.96321097     0              4.2394686      13.920871    
     79000   2.0960722      0.98231864     0              4.1248918      13.834683    
     79500   2.0799719      0.91029895     0              4.0287335      13.416641    
     80000   2.034007       0.87682108     0              3.9263419      13.091694    
     80500   2.0667074      0.90678518     0              4.0053325      13.346753    
     81000   2.0735223      0.94502307     0              4.0537879      13.563137    
     81500   2.1153414      0.830673       0              4.0021358      12.549813    
     82000   2.0985233      0.81584366     0              3.9620916      12.504169    
     82500   2.0309954      0.87159527     0              3.9166008      12.82491     
     83000   2.018264       0.86915604     0              3.8950739      12.994476    
     83500   2.0134699      0.84951343     0              3.8682435      12.77477     
     84000   2.0273348      0.84926525     0              3.8887826      12.723889    
     84500   2.0195787      0.77127278     0              3.7991616      12.053763    
     85000   1.9854332      0.83927411     0              3.8159697      12.53826     
     85500   2.0151319      0.81530553     0              3.8365275      12.442726    
     86000   2.0012832      0.82992294     0              3.830382       12.65298     
     86500   1.9473753      0.81678788     0              3.7364245      12.319889    
     87000   1.8924283      0.76940699     0              3.6066634      11.908321    
     87500   1.8484634      0.77938013     0              3.5507214      11.897923    
     88000   1.837611       0.75130631     0              3.5063768      11.826642    
     88500   1.8624392      0.70759893     0              3.4998936      11.307679    
     89000   1.8712978      0.76863474     0              3.5742109      11.657365    
     89500   1.8673497      0.75892093     0              3.5585778      11.842662    
     90000   1.8526225      0.80462534     0              3.5822021      12.253278    
     90500   1.8020827      0.71968548     0              3.4214897      11.214641    
     91000   1.8215019      0.71815813     0              3.4490768      11.390175    
     91500   1.7919885      0.73002868     0              3.4166989      11.476708    
     92000   1.7704276      0.7564882      0              3.4108329      11.506821    
     92500   1.7913702      0.74044409     0              3.4261874      11.568916    
     93000   1.7777113      0.69952727     0              3.3647922      11.175122    
     93500   1.7433358      0.78397512     0              3.3977019      11.914873    
     94000   1.7974673      0.73023941     0              3.4251239      11.472881    
     94500   1.7174185      0.66034616     0              3.235216       10.774935    
     95000   1.692012       0.70756326     0              3.244342       11.119133    
     95500   1.7037898      0.68099765     0              3.2354345      10.922708    
     96000   1.6744097      0.70078655     0              3.2111747      10.93972     
     96500   1.6964355      0.63982609     0              3.1832369      10.513544    
     97000   1.6581797      0.67122031     0              3.1572754      10.711406    
     97500   1.6614635      0.6610438      0              3.1520221      10.614103    
     98000   1.6459105      0.68914531     0              3.1568056      10.99386     
     98500   1.6301895      0.63794436     0              3.0820347      10.375237    
     99000   1.6186978      0.66159192     0              3.088453       10.550359    
     99500   1.5857326      0.60111789     0              2.9785554      10.013302    
    100000   1.5151824      0.60238547     0              2.8740493      9.9584248    
    100500   1.5213181      0.59362757     0              2.8744905      9.8912006    
    101000   1.5170544      0.58246384     0              2.8569343      9.7864984    
    101500   1.4755735      0.60706798     0              2.8193476      9.9267071    
    102000   1.4607684      0.5885933      0              2.7786761      9.7782937    
    102500   1.4841369      0.56623529     0              2.7913536      9.4865374    
    103000   1.4734079      0.56896124     0              2.777994       9.6605618    
    103500   1.4720493      0.5568505      0              2.7638463      9.423867     
    104000   1.4655434      0.53339252     0              2.7306342      9.3004597    
    104500   1.4226076      0.56521709     0              2.6980865      9.3902095    
    105000   1.4058487      0.56964111     0              2.6773845      9.4456629    
    105500   1.4284908      0.5654678      0              2.7071577      9.5199045    
    106000   1.3860652      0.56834236     0              2.646425       9.4225714    
    106500   1.388095       0.53548972     0              2.6166156      9.1147168    
    107000   1.3870555      0.52094275     0              2.6005101      8.9600525    
    107500   1.345529       0.50999886     0              2.5273069      8.8538208    
    108000   1.340294       0.50920643     0              2.5186658      8.8763751    
    108500   1.3331858      0.54007269     0              2.538875       9.2076762    
    109000   1.2986678      0.5236647      0              2.4707152      8.8815085    
    109500   1.2805915      0.53284264     0              2.452792       9.0923906    
    110000   1.2888033      0.4548106      0              2.3870716      8.21501      
    110500   1.2832779      0.49929865     0              2.4232756      8.6586706    
    111000   1.2244126      0.46347698     0              2.299199       8.2446731    
    111500   1.1995543      0.4816063      0              2.2800592      8.4281473    
    112000   1.2325598      0.45155173     0              2.2994887      8.0928691    
    112500   1.2118564      0.43917951     0              2.2560766      7.977054     
    113000   1.1603649      0.49318198     0              2.2328794      8.5772987    
    113500   1.1183737      0.41802171     0              2.0947632      7.6716074    
    114000   1.1309493      0.42888445     0              2.12448        7.7335782    
    114500   1.0968133      0.41279935     0              2.0572159      7.577672     
    115000   1.1119409      0.41526139     0              2.0823583      7.6172048    
    115500   1.0798976      0.44629336     0              2.0653488      7.9678888    
    116000   1.1074369      0.39239587     0              2.0527401      7.3243785    
    116500   1.0787665      0.38760501     0              2.0049646      7.3990296    
    117000   1.0397225      0.37548465     0              1.9343068      7.1470535    
    117500   1.0395477      0.35202253     0              1.9105826      6.8096142    
    118000   1.017858       0.35906872     0              1.8851103      6.9251007    
    118500   0.99568764     0.39084932     0              1.8836515      7.2516515    
    119000   1.0073852      0.37506419     0              1.8854042      7.0396311    
    119500   0.98575974     0.36044424     0              1.8383619      6.9100564    
    120000   0.97160571     0.34441176     0              1.8011087      6.7217594    
    120500   0.93250305     0.34804288     0              1.7461145      6.6967361    
    121000   0.93330558     0.33074955     0              1.7300244      6.5145047    
    121500   0.92188403     0.32688515     0              1.709036       6.5096389    
    122000   0.92840111     0.30419172     0              1.6961134      6.2133397    
    122500   0.91419039     0.33774018     0              1.7083562      6.5112096    
    123000   0.87963383     0.32335046     0              1.6421569      6.4133292    
    123500   0.88252342     0.3041022      0              1.6272409      6.1716524    
    124000   0.8423559      0.31929547     0              1.5822124      6.2597498    
    124500   0.87863983     0.28538006     0              1.6026963      5.9104187    
    125000   0.81630603     0.3113016      0              1.5351628      6.2213905    
    125500   0.82916868     0.28183201     0              1.5249777      5.82399      
    126000   0.82403567     0.29634232     0              1.5317923      5.9569134    
    126500   0.78462215     0.27583473     0              1.4521933      5.7087666    
    127000   0.79082995     0.27401525     0              1.4596809      5.6598483    
    127500   0.73914332     0.26959728     0              1.3777709      5.5531021    
    128000   0.73638839     0.24528624     0              1.3493295      5.2706609    
    128500   0.72341078     0.24931181     0              1.3338981      5.2460304    
    129000   0.72185365     0.2526133      0              1.3348651      5.3168297    
    129500   0.68554271     0.22458466     0              1.2523966      4.966845     
    130000   0.67828102     0.21516908     0              1.2320938      4.9017765    
    130500   0.65951881     0.20772508     0              1.1965203      4.7289695    
    131000   0.64336061     0.21275569     0              1.1773254      4.7892348    
    131500   0.62981717     0.20534375     0              1.1496082      4.7027727    
    132000   0.61287487     0.19485419     0              1.1137176      4.4567519    
    132500   0.60613728     0.19533321     0              1.1040952      4.5640314    
    133000   0.61190435     0.19751056     0              1.1149189      4.4894469    
    133500   0.57727304     0.1931509      0              1.0586377      4.3826124    
    134000   0.57572051     0.17616011     0              1.0393192      4.2395483    
    134500   0.5536465      0.16560884     0              0.99567309     3.9949058    
    135000   0.54106231     0.16621019     0              0.97740737     4.0729473    
    135500   0.51357254     0.1644391      0              0.93442176     3.9651097    
    136000   0.50420257     0.15666429     0              0.91259886     3.8942709    
    136500   0.49695789     0.15223241     0              0.89730525     3.7886018    
    137000   0.47255526     0.16456689     0              0.87305367     3.9510216    
    137500   0.47079408     0.14198762     0              0.84783392     3.6428887    
    138000   0.44386702     0.13218437     0              0.7976598      3.3989085    
    138500   0.42588511     0.1224275      0              0.76094324     3.2975412    
    139000   0.41797293     0.12157983     0              0.7482331      3.242125     
    139500   0.40638144     0.12801073     0              0.73728525     3.3391482    
    140000   0.40229793     0.10932368     0              0.71247592     2.9915809    
    140500   0.37516152     0.10633787     0              0.66880537     2.9262832    
    141000   0.35709447     0.096284128    0              0.63166429     2.7513696    
    141500   0.34312816     0.093305567    0              0.6077465      2.6784124    
    142000   0.3366496      0.085485289    0              0.59021311     2.5416999    
    142500   0.32841565     0.083682218    0              0.57606516     2.5101552    
    143000   0.30414509     0.075279752    0              0.53127462     2.3334156    
    143500   0.28589052     0.068843343    0              0.49746973     2.2077915    
    144000   0.27690363     0.0677331      0              0.48288573     2.1385498    
    144500   0.26284095     0.068230949    0              0.46229987     2.1781692    
    145000   0.24297701     0.06012287     0              0.42441042     1.9893768    
    145500   0.22985071     0.054722516    0              0.39933023     1.9028768    
    146000   0.21670226     0.051193678    0              0.37608835     1.7825101    
    146500   0.20087661     0.048512246    0              0.34968003     1.7516178    
    147000   0.18888759     0.04218036     0              0.3253734      1.5500007    
    147500   0.17368852     0.038562807    0              0.29896838     1.4508241    
    148000   0.15861856     0.034751755    0              0.27256342     1.3571872    
    148500   0.14544253     0.029194548    0              0.24725182     1.2356716    
    149000   0.13060867     0.025427296    0              0.22124464     1.1014414    
    149500   0.11620009     0.021452091    0              0.19566711     0.99641175   
    150000   0.10171362     0.017943956    0              0.17043989     0.87468563   
Loop time of 12.4601 on 4 procs for 100000 steps with 2048 atoms

Performance: 6934111.602 tau/day, 8025.592 timesteps/s, 16.436 Matom-step/s
98.9% CPU use with 4 MPI tasks x 1 OpenMP threads

MPI task timing breakdown:
Section |  min time  |  avg time  |  max time  |%varavg| %total
---------------------------------------------------------------
Pair    | 1.8531     | 1.8613     | 1.8706     |   0.6 | 14.94
Neigh   | 6.7486     | 6.7696     | 6.7793     |   0.5 | 54.33
Comm    | 2.4446     | 2.463      | 2.4905     |   1.1 | 19.77
Output  | 0.16426    | 0.16523    | 0.16814    |   0.4 |  1.33
Modify  | 0.79642    | 0.80571    | 0.81592    |   0.8 |  6.47
Other   |            | 0.3952     |            |       |  3.17

Nlocal:            512 ave         518 max         507 min
Histogram: 1 1 0 0 0 0 1 0 0 1
Nghost:         680.75 ave         691 max         672 min
Histogram: 1 0 1 0 0 1 0 0 0 1
Neighs:        2312.75 ave        2345 max        2281 min
Histogram: 2 0 0 0 0 0 0 0 0 2

Total # of neighbors = 9251
Ave neighs/atom = 4.5170898
Neighbor list builds = 28323
Dangerous builds = 0
Total wall time: 0:00:20
LAMMPS (15 Sep 2022)
OMP_NUM_THREADS environment is not set. Defaulting to 1 thread. (src/comm.cpp:98)
  using 1 OpenMP thread(s) per MPI task
Lattice spacing in x,y,z = 1.5874011 1.5874011 1.5874011
Created orthogonal box = (0 0 0) to (12.699208 12.699208 12.699208)
  1 by 2 by 2 MPI processor grid
Created 2048 atoms
  using lattice units in orthogonal box = (0 0 0) to (12.699208 12.699208 12.699208)
  create_atoms CPU = 0.000 seconds
Generated 0 of 0 mixed pair_coeff terms from geometric mixing rule
Neighbor list info ...
  update: every = 1 steps, delay = 0 steps, check = yes
  max neighbors/atom: 2000, page size: 100000
  master list distance cutoff = 1.3
  ghost atom cutoff = 1.3
  binsize = 0.65, bins = 20 20 20
  1 neighbor lists, perpetual/occasional/extra = 1 0 0
  (1) pair lj/cut, perpetual
      attributes: half, newton on
      pair build: half/bin/atomonly/newton
      stencil: half/bin/3d
      bin: standard
Setting up Verlet run ...
  Unit style    : lj
  Current step  : 0
  Time step     : 0.01
Per MPI rank memory allocation (min/avg/max) = 3.102 | 3.102 | 3.102 Mbytes
   Step          Temp          E_pair         E_mol          TotEng         Press     
         0   3              0              0              4.4978027      2.9985352    
       500   3.1246948      1.9517894      0              6.636543       26.474234    
      1000   3.1183895      1.8344443      0              6.5097445      25.466257    
      1500   3.0858799      1.7849096      0              6.4114693      25.3697      
      2000   3.0005278      1.8338434      0              6.3324375      25.513302    
      2500   2.9728356      1.8590692      0              6.3161453      25.598719    
      3000   3.0288064      1.7460517      0              6.2870429      25.026111    
      3500   2.9689085      1.8377274      0              6.2889156      25.356805    
      4000   3.0310485      1.8207006      0              6.3650533      25.510281    
      4500   3.0150619      1.7920822      0              6.3124668      25.155244    
      5000   3.1365113      1.6626447      0              6.3651144      24.011506    
      5500   2.8854893      1.8139567      0              6.1400772      25.20445     
      6000   2.9805342      1.7005607      0              6.1691791      24.274309    
      6500   2.9735204      1.8084322      0              6.2665349      25.243684    
      7000   3.0259875      1.8245958      0              6.3613607      25.57957     
      7500   3.0480654      1.8482572      0              6.4181229      25.572905    
      8000   2.9866069      1.8951676      0              6.3728904      25.922099    
      8500   3.0680763      1.9322335      0              6.5321008      26.59379     
      9000   3.0046903      1.6909248      0              6.1957595      24.103585    
      9500   2.9796398      1.8410338      0              6.3083111      25.629003    
     10000   3.0436035      1.7205542      0              6.2837303      24.541857    
     10500   2.9512564      1.847138       0              6.271861       25.573601    
     11000   3.0640586      1.8872528      0              6.4810965      25.92368     
     11500   3.0066568      1.7467638      0              6.2545469      24.620117    
     12000   3.0938583      1.7952886      0              6.43381        25.161049    
     12500   2.9583556      1.6719036      0              6.1072702      23.982385    
     13000   2.9992686      1.8055028      0              6.302209       25.167938    
     13500   2.9865795      1.8107211      0              6.2884029      25.385073    
     14000   2.9947926      1.8575657      0              6.347561       25.598036    
     14500   3.0227526      1.851882       0              6.3837971      25.712751    
     15000   3.0519685      1.8533711      0              6.4290885      25.68        
     15500   3.006201       1.7714119      0              6.2785116      25.123596    
     16000   3.0052435      1.7409915      0              6.2466557      24.649586    
     16500   3.0623326      1.7371147      0              6.3283707      24.791461    
     17000   2.9856715      1.7267646      0              6.2030851      24.465915    
     17500   2.9941278      1.8042243      0              6.293223       25.153523    
     18000   3.0490221      1.7711103      0              6.3424104      24.812918    
     18500   3.0742783      1.769207       0              6.3783727      25.074695    
     19000   2.9711585      1.7704459      0              6.2250076      25.153335    
     19500   3.0030323      1.7447706      0              6.2471195      24.673309    
     20000   3.0251325      1.751196       0              6.286679       24.702544    
     20500   3.0285701      1.7510061      0              6.2916431      24.483085    
     21000   3.1060206      1.8223045      0              6.4790606      25.421553    
     21500   2.9379626      1.8297784      0              6.2345704      25.271606    
     22000   3.0035161      1.8052709      0              6.3083453      25.288534    
     22500   3.0213532      1.8160748      0              6.3458917      25.510787    
     23000   2.9547572      1.8043015      0              6.2342731      25.256821    
     23500   3.0560598      1.7346735      0              6.3165249      24.722846    
     24000   3.0732852      1.8579034      0              6.4655803      25.653422    
     24500   2.9928502      1.8508349      0              6.3379182      25.764908    
     25000   3.0608287      1.8385213      0              6.4275226      25.473174    
     25500   2.9910403      1.8119664      0              6.2963362      25.136326    
     26000   2.9735115      1.7814166      0              6.239506       25.055621    
     26500   3.0034704      1.7388386      0              6.2418444      24.528548    
     27000   3.0355056      1.8043122      0              6.3553474      25.424374    
     27500   2.9282473      1.8545154      0              6.2447417      25.656248    
     28000   2.9790783      1.7602647      0              6.2267003      24.988926    
     28500   2.9456711      1.8198844      0              6.2362336      25.64038     
     29000   3.0289784      1.8158758      0              6.3571249      25.648728    
     29500   2.9786118      1.7830557      0              6.2487918      24.844757    
     30000   2.9658816      1.8266769      0              6.2733271      25.465769    
     30500   3.0113492      1.7148027      0              6.229621       24.564497    
     31000   2.9611212      1.8152548      0              6.2547678      25.208487    
     31500   2.9930474      1.6919155      0              6.1792943      24.189719    
     32000   3.0053206      1.8106436      0              6.3164234      25.426839    
     32500   3.067955       1.8853205      0              6.485006       25.849789    
     33000   2.9975299      1.7665941      0              6.2606935      24.913425    
     33500   3.0202924      1.8573861      0              6.3856126      25.87427     
     34000   3.0484777      1.8676429      0              6.4381266      25.811962    
     34500   3.0722156      1.7957889      0              6.4018621      25.225888    
     35000   3.1181819      1.7895931      0              6.4645822      25.339037    
     35500   2.9937256      1.7374681      0              6.2258639      24.684369    
     36000   3.05971        1.729662       0              6.316986       24.660883    
     36500   2.9141804      1.7815021      0              6.1506383      25.018872    
     37000   3.0308371      1.7850372      0              6.329073       25.27577     
     37500   3.090347       1.8211654      0              6.4544225      25.508505    
     38000   2.9435072      1.8453148      0              6.2584196      25.543052    
     38500   2.9830448      1.8616736      0              6.334056       25.916587    
     39000   3.0237417      1.7051246      0              6.2385224      24.597722    
     39500   2.9143708      1.831936       0              6.2013576      25.492859    
     40000   3.0342441      1.7446671      0              6.2938109      24.795942    
     40500   3.0210585      1.8760439      0              6.405419       25.980391    
     41000   2.9805652      1.7869265      0              6.2555914      25.289847    
     41500   3.0328961      1.7625781      0              6.3097008      24.965801    
     42000   2.891041       1.8248803      0              6.1593244      25.066849    
     42500   2.9774309      1.8026571      0              6.2666227      25.114989    
     43000   2.9938678      1.8223089      0              6.3109178      25.468434    
     43500   2.9947486      1.7642571      0              6.2541866      24.816094    
     44000   3.0862017      1.8483978      0              6.47544        25.665642    
     44500   3.0320172      1.8639645      0              6.4097696      25.929574    
     45000   3.1698361      1.7962845      0              6.548717       25.292563    
     45500   3.012582       1.8069094      0              6.3235759      25.139713    
     46000   3.0790846      1.9210643      0              6.5374359      26.053751    
     46500   2.9679586      1.8203044      0              6.2700686      25.569505    
     47000   3.0140757      1.7925833      0              6.3114893      25.061881    
     47500   3.0929257      1.8664203      0              6.5035435      26.056092    
     48000   2.9348818      1.8858653      0              6.2860384      25.912912    
     48500   3.1110101      1.7924289      0              6.4566654      25.094811    
     49000   2.9275098      1.7833074      0              6.1724279      24.996366    
     49500   2.9835808      1.8103985      0              6.2835844      25.148455    
     50000   3.0530151      1.7126572      0              6.2899437      24.576307    
Loop time of 8.72893 on 4 procs for 50000 steps with 2048 atoms

Performance: 4949058.156 tau/day, 5728.077 timesteps/s, 11.731 Matom-step/s
99.2% CPU use with 4 MPI tasks x 1 OpenMP threads

MPI task timing breakdown:
Section |  min time  |  avg time  |  max time  |%varavg| %total
---------------------------------------------------------------
Pair    | 1.2238     | 1.2639     | 1.302      |   2.5 | 14.48
Neigh   | 5.264      | 5.2864     | 5.3154     |   0.9 | 60.56
Comm    | 1.4792     | 1.5257     | 1.5815     |   3.5 | 17.48
Output  | 0.0018184  | 0.0033109  | 0.0077849  |   4.5 |  0.04
Modify  | 0.41636    | 0.41916    | 0.42616    |   0.6 |  4.80
Other   |            | 0.2304     |            |       |  2.64

Nlocal:            512 ave         515 max         508 min
Histogram: 1 0 0 0 0 1 0 1 0 1
Nghost:         714.25 ave         733 max         698 min
Histogram: 1 0 0 0 2 0 0 0 0 1
Neighs:         2451.5 ave        2496 max        2420 min
Histogram: 2 0 0 0 0 0 1 0 0 1

Total # of neighbors = 9806
Ave neighs/atom = 4.7880859
Neighbor list builds = 20260
Dangerous builds = 0
Generated 0 of 0 mixed pair_coeff terms from geometric mixing rule
Setting up Verlet run ...
  Unit style    : lj
  Current step  : 50000
  Time step     : 0.01
Per MPI rank memory allocation (min/avg/max) = 3.177 | 3.177 | 3.177 Mbytes
   Step          Temp          E_pair         E_mol          TotEng         Press     
     50000   3.0530151      1.7126572      0              6.2899437      24.576307    
     50500   3.0718747      1.8337838      0              6.439346       25.696159    
     51000   2.9312305      1.7630324      0              6.1577313      24.78499     
     51500   2.9415068      1.7579747      0              6.1680805      24.681779    
     52000   2.9101922      1.7893517      0              6.1525085      24.980961    
     52500   2.9208297      1.7448115      0              6.1239168      24.719358    
     53000   2.892495       1.7615299      0              6.0981539      24.969195    
     53500   2.9290899      1.7005451      0              6.0920347      24.346038    
     54000   2.9050586      1.6700782      0              6.0255384      24.081073    
     54500   2.9646628      1.7252387      0              6.1700615      24.381345    
     55000   2.8187353      1.7066627      0              5.9327012      24.115141    
     55500   2.8681549      1.7663597      0              6.0664914      24.972255    
     56000   2.7187255      1.6759464      0              5.7520434      24.128369    
     56500   2.8233519      1.673519       0              5.9064789      23.950531    
     57000   2.7864373      1.6545466      0              5.8321617      23.776121    
     57500   2.7729586      1.7089356      0              5.8663425      24.272423    
     58000   2.811628       1.6366407      0              5.8520233      23.384462    
     58500   2.7467821      1.6603983      0              5.7785597      23.733322    
     59000   2.7404995      1.6251289      0              5.7338709      23.239341    
     59500   2.7673013      1.7060008      0              5.8549259      24.15923     
     60000   2.6977067      1.5621184      0              5.6067026      22.854577    
     60500   2.7047031      1.579827       0              5.6349008      23.06453     
     61000   2.6904165      1.5550881      0              5.5887423      22.574135    
     61500   2.6578262      1.6002744      0              5.585067       23.106677    
     62000   2.7109839      1.6277151      0              5.6922053      23.43691     
     62500   2.6542953      1.6004602      0              5.5799591      23.116317    
     63000   2.7288641      1.6075311      0              5.6988285      23.224375    
     63500   2.6167833      1.520348       0              5.4436063      22.601795    
     64000   2.5946547      1.5392577      0              5.4293393      22.410352    
     64500   2.502186       1.5031923      0              5.2546386      22.046653    
     65000   2.5936384      1.4357703      0              5.3243282      21.451895    
     65500   2.5308371      1.486887       0              5.2812891      21.81197     
     66000   2.5158923      1.5886384      0              5.3606341      22.769078    
     66500   2.6128015      1.5131226      0              5.4304112      22.2761      
     67000   2.5238525      1.4428555      0              5.2267858      21.607372    
     67500   2.5297831      1.5000099      0              5.2928317      21.939509    
     68000   2.4420767      1.4155681      0              5.0768946      21.028958    
     68500   2.4283693      1.4593695      0              5.1001448      21.506672    
     69000   2.4223392      1.4039643      0              5.035699       21.115243    
     69500   2.4374773      1.3848566      0              5.0392873      20.79261     
     70000   2.4430929      1.3657546      0              5.0286045      20.769399    
     70500   2.430413       1.4199549      0              5.0637944      21.194135    
     71000   2.4059192      1.3853906      0              4.9925073      21.024974    
     71500   2.4642773      1.3947885      0              5.0893995      20.853068    
     72000   2.3823842      1.4002583      0              4.9720896      21.060301    
     72500   2.3899937      1.3424502      0              4.9256903      20.657417    
     73000   2.3078119      1.3557123      0              4.8157399      20.372479    
     73500   2.3212516      1.2873149      0              4.7674922      19.882354    
     74000   2.2781221      1.3787028      0              4.7942175      20.680374    
     74500   2.2991113      1.3669171      0              4.8139001      20.491295    
     75000   2.3102016      1.3452352      0              4.8088456      20.34664     
     75500   2.2738016      1.3578706      0              4.7669076      20.693998    
     76000   2.2395591      1.2983149      0              4.6560133      19.931206    
     76500   2.3026057      1.2608267      0              4.7130488      19.394671    
     77000   2.2336104      1.2842093      0              4.632989       19.888623    
     77500   2.2540924      1.252588       0              4.6320756      19.322353    
     78000   2.1930143      1.2557987      0              4.543714       19.599694    
     78500   2.1693332      1.246598       0              4.4990089      19.601116    
     79000   2.1585233      1.2200469      0              4.4562508      19.235673    
     79500   2.0989837      1.2595518      0              4.4064899      19.308815    
     80000   2.1086959      1.1813452      0              4.3428446      18.795586    
     80500   2.1047472      1.167524       0              4.3231032      18.405809    
     81000   2.1032201      1.1740527      0              4.3273423      18.580425    
     81500   2.0629535      1.257365       0              4.3502843      19.327699    
     82000   2.0672014      1.2020236      0              4.3013116      18.680989    
     82500   2.1098729      1.129038       0              4.292302       18.020631    
     83000   2.0297534      1.1815798      0              4.2247233      18.541756    
     83500   2.0786659      1.1645857      0              4.2810622      18.437292    
     84000   1.9926936      1.189111       0              4.1766919      18.523665    
     84500   2.0452655      1.103694       0              4.1700942      17.847141    
     85000   1.9281819      1.1085272      0              3.9993878      17.69567     
     85500   1.950824       1.1441059      0              4.068913       18.307342    
     86000   1.9001304      1.1012322      0              3.9500362      17.582149    
     86500   1.9105495      1.1029524      0              3.9673774      17.558323    
     87000   1.9183178      1.0844944      0              3.9605661      17.618668    
     87500   1.8925492      1.076837       0              3.9142747      17.43466     
     88000   1.8868246      1.022294       0              3.851149       16.80697     
     88500   1.8561907      1.0461819      0              3.8291084      17.057899    
     89000   1.8194464      1.0914789      0              3.8193159      17.408854    
     89500   1.868746       0.99157956     0              3.7933298      16.681376    
     90000   1.8426778      1.0138872      0              3.7765543      16.794201    
     90500   1.8256562      1.0221077      0              3.7592548      16.933823    
     91000   1.8225477      1.0142608      0              3.7467474      16.557144    
     91500   1.7716468      0.95006598     0              3.6062386      15.932012    
     92000   1.7841488      0.98110711     0              3.6560236      16.303055    
     92500   1.7854214      0.97033524     0              3.6471597      16.218924    
     93000   1.7407559      1.0089118      0              3.6187707      16.707701    
     93500   1.770735       0.93945051     0              3.5942561      15.83497     
     94000   1.7063769      1.0113164      0              3.5696319      16.586047    
     94500   1.7388325      0.99157089     0              3.5985462      16.543259    
     95000   1.6835046      0.92700365     0              3.4510276      15.784681    
     95500   1.6744468      0.92299503     0              3.4334388      15.705223    
     96000   1.6608334      0.91063821     0              3.4006718      15.449857    
     96500   1.649872       0.88626878     0              3.3598683      15.300959    
     97000   1.6351044      0.91782421     0              3.3692832      15.603332    
     97500   1.6133564      0.92522639     0              3.3440793      15.630457    
     98000   1.6457942      0.86452606     0              3.332012       15.055221    
     98500   1.5986987      0.88715453     0              3.2840317      15.309256    
[...]

Performance: 5057370.351 tau/day, 5853.438 timesteps/s, 11.988 Matom-step/s
99.2% CPU use with 4 MPI tasks x 1 OpenMP threads

MPI task timing breakdown:
Section |  min time  |  avg time  |  max time  |%varavg| %total
---------------------------------------------------------------
Pair    | 2.1588     | 2.2385     | 2.3182     |   4.4 | 26.21
Neigh   | 3.675      | 3.9317     | 4.1938     |  11.2 | 46.03
Comm    | 1.4879     | 1.7087     | 1.9658     |  16.7 | 20.00
Output  | 0.0018375  | 0.0032663  | 0.0075457  |   4.3 |  0.04
Modify  | 0.41694    | 0.41951    | 0.42307    |   0.4 |  4.91
Other   |            | 0.2403     |            |       |  2.81

Nlocal:            512 ave         530 max         499 min
Histogram: 1 1 0 0 1 0 0 0 0 1
Nghost:         647.25 ave         659 max         631 min
Histogram: 1 0 0 1 0 0 0 0 0 2
Neighs:         3143.5 ave        3271 max        3062 min
Histogram: 1 0 1 1 0 0 0 0 0 1

Total # of neighbors = 12574
Ave neighs/atom = 6.1396484
Neighbor list builds = 20675
Dangerous builds = 1
Generated 0 of 0 mixed pair_coeff terms from geometric mixing rule
Setting up Verlet run ...
  Unit style    : lj
  Current step  : 50000
  Time step     : 0.01
Per MPI rank memory allocation (min/avg/max) = 3.169 | 3.169 | 3.17 Mbytes
   Step          Temp          E_pair         E_mol          TotEng         Press     
     50000   3.0846429      6.0984455      0              10.723151      116.66162    
     50500   3.1411321      6.0592473      0              10.768645      115.90252    
     51000   3.1739511      5.8337755      0              10.592377      113.69316    
     51500   3.0133087      5.9425095      0              10.460266      114.98055    
     52000   3.082122       5.8793982      0              10.500324      114.35533    
     52500   3.0137287      5.9218059      0              10.440192      114.53993    
     53000   3.0231866      5.8324382      0              10.365004      113.53893    
     53500   3.0073117      5.8408777      0              10.349643      113.88088    
     54000   2.9254086      5.8629165      0              10.248887      113.98767    
     54500   2.8942335      5.9717626      0              10.310993      114.91583    
     55000   2.9284505      5.7685773      0              10.159108      113.03397    
     55500   2.9544834      5.7161655      0              10.145727      112.26822    
     56000   2.9299581      5.7442698      0              10.137061      112.43409    
     56500   2.8640562      5.7474443      0              10.041431      112.31029    
     57000   2.8156371      5.7491519      0              9.9705453      112.3763     
     57500   2.8746559      5.6684448      0              9.9783232      111.77226    
     58000   2.826952       5.659793       0              9.8981504      111.35986    
     58500   2.7626832      5.6816431      0              9.8236444      111.65961    
     59000   2.7601804      5.6874444      0              9.8256934      111.46732    
     59500   2.7493508      5.6180075      0              9.74002        111.2641     
     60000   2.7349719      5.6028846      0              9.7033394      110.78062    
     60500   2.7080516      5.5970511      0              9.6571451      110.37925    
     61000   2.7639123      5.4075479      0              9.551392       108.32195    
     61500   2.718795       5.4800533      0              9.5562544      109.27315    
     62000   2.721474       5.4083339      0              9.4885517      108.8527     
     62500   2.679074       5.412314       0              9.4289629      108.47878    
     63000   2.7203016      5.3505195      0              9.4289795      107.71162    
     63500   2.6246293      5.3888072      0              9.3238288      108.19284    
     64000   2.6146225      5.3986803      0              9.3186991      108.13603    
     64500   2.6262195      5.3412848      0              9.2786905      107.76549    
     65000   2.6158267      5.2720908      0              9.193915       106.68033    
     65500   2.5043087      5.3956552      0              9.150284       107.88582    
     66000   2.5549109      5.3273579      0              9.157853       107.3463     
     66500   2.6234077      5.1191287      0              9.0523187      105.10102    
     67000   2.4974242      5.2749411      0              9.0192483      106.57723    
     67500   2.517155       5.1829867      0              8.9568755      105.54131    
     68000   2.5601434      5.1174223      0              8.9557623      105.05919    
     68500   2.5272542      5.0751827      0              8.8642129      104.42145    
     69000   2.4767245      5.1736117      0              8.8868844      105.62067    
     69500   2.5492055      4.9917972      0              8.8137383      103.37828    
     70000   2.4294232      5.1323843      0              8.7747398      104.9263     
     70500   2.4481573      4.9980245      0              8.6684674      103.38673    
     71000   2.4119508      5.0302314      0              8.646391       103.74344    
     71500   2.3916729      5.00933        0              8.5950876      103.63204    
     72000   2.4575496      4.8450331      0              8.5295575      101.55776    
     72500   2.4136602      4.8722717      0              8.4909941      101.77244    
     73000   2.3386333      4.95644        0              8.4626771      102.57353    
     73500   2.291548       4.9313575      0              8.3670012      102.28458    
     74000   2.3217721      4.895688       0              8.3766456      101.89581    
     74500   2.3088653      4.8805597      0              8.3421665      102.00519    
     75000   2.3029038      4.7794796      0              8.2321486      100.79671    
     75500   2.3196623      4.7368426      0              8.2146371      100.21184    
     76000   2.3141635      4.702736       0              8.1722864      99.731114    
     76500   2.2333513      4.7739261      0              8.1223173      100.49152    
     77000   2.264469       4.7060895      0              8.1011345      99.513469    
     77500   2.2385174      4.673538       0              8.0296746      99.386448    
     78000   2.2257251      4.6543572      0              7.9913147      99.083823    
     78500   2.1226714      4.7689049      0              7.9513574      100.02953    
     79000   2.1956252      4.5914947      0              7.8833244      98.407523    
     79500   2.168743       4.607378       0              7.858904       98.524734    
     80000   2.146284       4.5981856      0              7.8160396      98.39516     
     80500   2.1458788      4.5537449      0              7.7709914      98.14907     
     81000   2.1383335      4.5031093      0              7.7090434      97.183966    
     81500   2.0786576      4.5166337      0              7.6330977      97.380576    
     82000   2.1096933      4.5692748      0              7.7322695      98.033822    
     82500   2.060889       4.4169706      0              7.5067946      96.063387    
     83000   2.0449384      4.4830702      0              7.54898        96.89429     
     83500   2.0463006      4.3833694      0              7.4513216      95.745359    
     84000   2.0719583      4.3282375      0              7.4346574      95.215487    
     84500   2.0282478      4.2969779      0              7.3378641      94.825764    
     85000   2.0282345      4.2840327      0              7.3248989      94.475897    
     85500   1.9483359      4.2377023      0              7.1587791      93.86114     
     86000   1.9145408      4.3541238      0              7.2245328      95.298827    
     86500   1.9073089      4.2125615      0              7.0721279      93.50745     
     87000   1.9695029      4.2473667      0              7.2001786      94.098231    
     87500   1.8727852      4.2422764      0              7.0500825      93.311498    
     88000   1.9336151      4.2418899      0              7.1408964      94.079464    
     88500   1.892202       4.1686649      0              7.005582       92.856926    
     89000   1.8255533      4.1760799      0              6.9130728      93.004235    
     89500   1.8572093      4.0915544      0              6.8760081      92.244239    
     90000   1.8959034      4.0601227      0              6.9025892      91.702036    
     90500   1.781696       4.02271        0              6.6939491      91.105134    
     91000   1.8287295      4.095702       0              6.8374569      92.008331    
     91500   1.7587754      4.0262604      0              6.6631353      90.842223    
     92000   1.7998141      3.9829688      0              6.6813717      90.696439    
     92500   1.7442668      3.9484461      0              6.5635688      90.180392    
     93000   1.823357       3.9881531      0              6.7218531      90.482212    
     93500   1.7267143      3.8995123      0              6.4883191      89.229489    
     94000   1.790421       3.8766525      0              6.5609726      89.241945    
     94500   1.7307601      3.8539886      0              6.4488611      89.185512    
     95000   1.6983236      3.8118609      0              6.3581023      88.402775    
     95500   1.6833034      3.7880348      0              6.3117571      88.029199    
     96000   1.637219       3.7898336      0              6.244463       88.058127    
     96500   1.6461059      3.8127655      0              6.2807187      88.361805    
     97000   1.6674444      3.7257379      0              6.2256833      87.511374    
     97500   1.6592316      3.8234397      0              6.3110719      88.289074    
     98000   1.5815299      3.6992317      0              6.0703683      86.969408    
     98500   1.567708       3.8017785      0              6.1521923      88.000899    
     99000   1.5757577      3.5594995      0              5.9219819      85.140536    
     99500   1.5365811      3.6748743      0              5.9786205      86.402012    
    100000   1.5424647      3.5926445      0              5.9052119      85.670214    
    100500   1.5521625      3.6859931      0              6.0131         86.531101    
    101000   1.5015898      3.5529185      0              5.8042035      84.988476    
    101500   1.5183878      3.5874557      0              5.8639253      85.332686    
    102000   1.5041877      3.5037844      0              5.7589643      84.410059    
    102500   1.5072685      3.5130623      0              5.7728611      84.320202    
    103000   1.4932184      3.481983       0              5.7207169      84.134656    
    103500   1.5105129      3.4711256      0              5.7357887      84.139835    
    104000   1.4338855      3.3869632      0              5.5367413      82.755018    
    104500   1.4368968      3.4437289      0              5.5980217      83.494217    
    105000   1.4480399      3.298431       0              5.4694303      81.6947      
    105500   1.3751614      3.4123798      0              5.4741147      83.006621    
    106000   1.377662       3.3351757      0              5.4006596      82.209794    
    106500   1.3772604      3.3589211      0              5.4238029      82.092938    
    107000   1.3249102      3.300216       0              5.286611       81.390671    
    107500   1.3848099      3.2480366      0              5.3242372      81.099293    
    108000   1.298206       3.2512251      0              5.1975833      80.706738    
    108500   1.3780847      3.2115332      0              5.277651       80.6152      
    109000   1.291554       3.1316007      0              5.0679858      79.155722    
    109500   1.2773268      3.2437043      0              5.158759       80.656216    
    110000   1.2581484      3.1070008      0              4.9933019      79.160234    
    110500   1.2544162      3.1747703      0              5.0554759      79.610235    
    111000   1.2148286      3.0826111      0              4.9039642      78.540659    
    111500   1.2486919      3.0844491      0              4.9565725      78.652513    
    112000   1.151255       3.0361432      0              4.7621825      77.968836    
    112500   1.2228029      2.9632322      0              4.796541       77.194782    
    113000   1.1962888      2.9758669      0              4.7694239      77.12737     
    113500   1.1000936      2.9191498      0              4.5684844      76.595467    
    114000   1.1322287      2.9368581      0              4.6343719      76.760207    
    114500   1.1008758      2.9023009      0              4.5528083      76.294217    
    115000   1.1071651      2.9198265      0              4.5797633      76.084324    
    115500   1.1273375      2.8328484      0              4.523029       75.54596     
    116000   1.0945233      2.8389169      0              4.4799002      75.206323    
    116500   1.0972177      2.8005663      0              4.4455893      74.789648    
    117000   1.0773173      2.7700771      0              4.385264       74.286102    
    117500   1.0267661      2.7828098      0              4.322207       74.585465    
    118000   1.0548111      2.7500788      0              4.3315228      74.251094    
    118500   1.0287012      2.6607245      0              4.2030228      72.655943    
    119000   1.0143122      2.7147485      0              4.2354739      73.594151    
    119500   0.96395276     2.6504569      0              4.09568        72.735027    
    120000   0.97888446     2.6578931      0              4.1255029      73.040659    
    120500   0.97525358     2.5776947      0              4.0398608      71.888754    
    121000   0.93499997     2.5361274      0              3.9379425      71.120728    
    121500   0.94067326     2.5206048      0              3.9309257      71.102258    
    122000   0.90830782     2.5174029      0              3.8791993      70.915364    
    122500   0.90436436     2.5119318      0              3.867816       70.85331     
    123000   0.86355036     2.4466641      0              3.7413572      69.968872    
    123500   0.86467588     2.4770584      0              3.7734389      70.198526    
    124000   0.85761433     2.4059377      0              3.6917311      69.281476    
    124500   0.83231064     2.4300707      0              3.6779271      69.574075    
    125000   0.83068618     2.3351685      0              3.5805894      68.376769    
    125500   0.81710645     2.3887669      0              3.6138281      69.20692     
    126000   0.78046393     2.3154995      0              3.4856238      68.037705    
    126500   0.79441664     2.3170604      0              3.5081035      68.276789    
    127000   0.77839257     2.2707723      0              3.4377911      67.423903    
    127500   0.76836083     2.2452089      0              3.3971874      67.001833    
    128000   0.72455418     2.2563203      0              3.3426209      67.198899    
    128500   0.71635226     2.2269122      0              3.3009159      66.836872    
    129000   0.72148207     2.1780452      0              3.2597399      66.196129    
    129500   0.69865331     2.1606571      0              3.2081254      66.005737    
    130000   0.69806672     2.1642959      0              3.2108847      66.115608    
    130500   0.646308       2.1279281      0              3.0969167      65.336095    
    131000   0.65692882     2.1108882      0              3.0958002      65.141877    
    131500   0.65043942     2.0249342      0              3.0001169      64.054134    
    132000   0.59248383     2.0418405      0              2.9301323      64.177518    
    132500   0.61421506     2.0067672      0              2.9276399      63.844746    
    133000   0.58528043     1.9523999      0              2.8298919      63.036153    
    133500   0.57722795     1.953996       0              2.8194152      62.956274    
    134000   0.55834314     1.9238534      0              2.7609591      62.569725    
    134500   0.54947488     1.8995179      0              2.7233278      62.196852    
    135000   0.53241887     1.8601687      0              2.658407       61.704771    
    135500   0.51414892     1.8657694      0              2.6366162      61.815442    
    136000   0.51306869     1.8235096      0              2.5927368      61.232054    
    136500   0.48613021     1.8197002      0              2.5485395      61.081016    
    137000   0.47366525     1.7782442      0              2.4883952      60.548234    
    137500   0.4641705      1.7378653      0              2.4337811      59.963848    
    138000   0.44158328     1.7189689      0              2.3810204      59.748962    
    138500   0.44123994     1.6865318      0              2.3480685      59.353115    
    139000   0.41988248     1.67462        0              2.3041362      59.145331    
    139500   0.40465658     1.6453485      0              2.252037       58.794993    
    140000   0.39142191     1.6058182      0              2.1926644      58.083913    
    140500   0.37774673     1.5939598      0              2.1603032      58.050791    
    141000   0.36583002     1.5676632      0              2.1161403      57.620984    
    141500   0.35074218     1.5325069      0              2.0583633      57.155789    
    142000   0.33562808     1.5188843      0              2.0220806      56.990988    
    142500   0.31763429     1.4975108      0              1.9737296      56.789525    
    143000   0.3089173      1.4604157      0              1.9235654      56.232594    
    143500   0.29058854     1.4448595      0              1.8805295      56.028539    
    144000   0.27525939     1.4159316      0              1.8286191      55.666896    
    144500   0.26547984     1.3856446      0              1.78367        55.288115    
    145000   0.24976927     1.3598705      0              1.7343415      54.969249    
    145500   0.23087851     1.3414467      0              1.6875954      54.702719    
    146000   0.22163648     1.3083966      0              1.6406889      54.303262    
    146500   0.20651116     1.2833484      0              1.5929638      53.999824    
    147000   0.18869917     1.2638099      0              1.5467204      53.773062    
    147500   0.1715727      1.2417752      0              1.4990086      53.512643    
    148000   0.16184921     1.2091483      0              1.4518036      53.186435    
    148500   0.14548717     1.187566       0              1.4056902      52.925126    
    149000   0.12873654     1.1654144      0              1.3584249      52.701315    
    149500   0.11724781     1.1363025      0              1.3120883      52.416844    
    150000   0.10279394     1.1113686      0              1.2654842      52.169555    
Loop time of 12.0943 on 4 procs for 100000 steps with 2048 atoms

Performance: 7143847.719 tau/day, 8268.342 timesteps/s, 16.934 Matom-step/s
98.9% CPU use with 4 MPI tasks x 1 OpenMP threads

MPI task timing breakdown:
Section |  min time  |  avg time  |  max time  |%varavg| %total
---------------------------------------------------------------
Pair    | 3.9927     | 4.1252     | 4.2744     |   5.5 | 34.11
Neigh   | 3.7649     | 4.0261     | 4.2939     |  11.1 | 33.29
Comm    | 2.3602     | 2.5815     | 2.8806     |  13.5 | 21.34
Output  | 0.16822    | 0.16913    | 0.17183    |   0.4 |  1.40
Modify  | 0.81298    | 0.81589    | 0.82103    |   0.3 |  6.75
Other   |            | 0.3765     |            |       |  3.11

Nlocal:            512 ave         522 max         502 min
Histogram: 1 0 0 1 0 0 0 1 0 1
Nghost:            637 ave         647 max         627 min
Histogram: 1 0 0 1 0 0 0 1 0 1
Neighs:           3072 ave        3158 max        2989 min
Histogram: 1 0 0 0 2 0 0 0 0 1

Total # of neighbors = 12288
Ave neighs/atom = 6
Neighbor list builds = 22272
Dangerous builds = 0
Total wall time: 0:00:20
