LAMMPS (15 Sep 2022)
OMP_NUM_THREADS environment is not set. Defaulting to 1 thread. (src/comm.cpp:98)
  using 1 OpenMP thread(s) per MPI task
Lattice spacing in x,y,z = 1.4142136 1.4142136 1.4142136
Created orthogonal box = (0 0 -0.70710678) to (28.284271 28.284271 0.70710678)
  2 by 2 by 1 MPI processor grid
Created 400 atoms
  using lattice units in orthogonal box = (0 0 -0.70710678) to (28.284271 28.284271 0.70710678)
  create_atoms CPU = 0.000 seconds
Generated 0 of 0 mixed pair_coeff terms from geometric mixing rule
Neighbor list info ...
  update: every = 1 steps, delay = 0 steps, check = yes
  max neighbors/atom: 2000, page size: 100000
  master list distance cutoff = 1.3
  ghost atom cutoff = 1.3
  binsize = 0.65, bins = 44 44 3
  1 neighbor lists, perpetual/occasional/extra = 1 0 0
  (1) pair lj/cut, perpetual
      attributes: half, newton on
      pair build: half/bin/atomonly/newton
      stencil: half/bin/2d
      bin: standard
Setting up Verlet run ...
  Unit style    : lj
  Current step  : 0
  Time step     : 0.01
Per MPI rank memory allocation (min/avg/max) = 3.05 | 3.05 | 3.05 Mbytes
   Step          Temp          E_pair         E_mol          TotEng         Press     
         0   3              0              0              2.9925         1.49625      
       500   3.0052791      0.12860348     0              3.1263694      2.8566279    
      1000   2.9652455      0.21845802     0              3.1762904      3.5096877    
      1500   2.9718259      0.30814014     0              3.2725365      4.0520853    
      2000   3.2804905      0.23513918     0              3.5074285      3.8438602    
      2500   3.24612        0.17497719     0              3.4129819      3.410664     
      3000   3.0007489      0.21375117     0              3.2069982      3.6810552    
      3500   2.9058698      0.20484936     0              3.1034545      3.5663159    
      4000   2.9032601      0.18740497     0              3.0834069      3.2723526    
      4500   2.8604942      0.18184513     0              3.0351881      3.1767568    
      5000   2.9440761      0.1994365      0              3.1361524      3.3322915    
      5500   3.0843826      0.15305079     0              3.2297225      3.1872435    
      6000   3.1442928      0.27444561     0              3.4108777      3.7024228    
      6500   3.3011549      0.25582406     0              3.5487261      4.0498874    
      7000   3.0134263      0.15843669     0              3.1643294      3.2068924    
      7500   3.0151163      0.25324237     0              3.2608209      3.7791528    
      8000   3.0537416      0.15092735     0              3.1970346      3.1431255    
      8500   3.180467       0.31119824     0              3.483714       4.3095332    
      9000   3.3442462      0.2151835      0              3.5510691      3.7661479    
      9500   3.1399515      0.22310201     0              3.3552036      3.6472143    
     10000   3.0913011      0.22193613     0              3.305509       3.6589271    
     10500   3.1647316      0.21988383     0              3.3767036      3.6420306    
     11000   2.862019       0.2220675      0              3.0769314      3.5553132    
     11500   2.9008976      0.18081954     0              3.0744648      3.2931333    
     12000   2.9489246      0.18091858     0              3.1224708      3.2789329    
     12500   2.8896591      0.25486745     0              3.1373024      3.7608139    
     13000   2.8418786      0.17154915     0              3.006323       3.2593494    
     13500   2.7235503      0.21252391     0              2.9292653      3.4637887    
     14000   2.8068347      0.1778145      0              2.9776321      3.2451327    
     14500   3.1062823      0.23701874     0              3.3355353      3.7691056    
     15000   3.1304888      0.24361403     0              3.3662766      3.9325529    
     15500   2.9954957      0.24630426     0              3.2343112      3.9007019    
     16000   3.2313435      0.20790881     0              3.431174       3.6530735    
     16500   2.978466       0.24521964     0              3.2162395      3.6456348    
     17000   3.0854398      0.19114523     0              3.2688714      3.470348     
     17500   2.9564268      0.2021746      0              3.1512104      3.473207     
     18000   2.9198152      0.22054906     0              3.1330647      3.5503922    
     18500   2.744096       0.1600509      0              2.8972867      3.0796055    
     19000   2.8373487      0.23050479     0              3.0607602      3.4961255    
     19500   3.002858       0.15779505     0              3.1531459      3.1824738    
     20000   3.0825223      0.23849022     0              3.3133062      3.9139425    
     20500   3.3162287      0.25626011     0              3.5641982      4.0029758    
     21000   2.9477859      0.2936198      0              3.2340363      3.9690667    
     21500   3.1467284      0.3346493      0              3.4735109      4.3241975    
     22000   3.1437595      0.16793899     0              3.3038391      3.3414195    
     22500   3.0504165      0.18435016     0              3.2271406      3.4742651    
     23000   3.095258       0.17980056     0              3.2673204      3.3554999    
     23500   3.0189596      0.17954119     0              3.1909534      3.3389492    
     24000   2.8736296      0.28123641     0              3.1476819      3.9515058    
     24500   2.9869965      0.14956302     0              3.129092       3.181389     
     25000   2.9193581      0.19421772     0              3.1062774      3.4313425    
     25500   2.8321743      0.29253329     0              3.1176271      4.01829      
     26000   2.8776063      0.1513213      0              3.0217336      3.092869     
     26500   2.9433636      0.26476283     0              3.2007681      3.889818     
     27000   2.8469032      0.24305375     0              3.0828397      3.7569638    
     27500   3.0445318      0.18006084     0              3.2169813      3.3134676    
     28000   3.153578       0.16316547     0              3.3088595      3.3261421    
     28500   2.9922995      0.23667783     0              3.2214966      3.7638986    
     29000   3.0640066      0.23642698     0              3.2927736      3.6964078    
     29500   3.0153756      0.2278011      0              3.2356382      3.7368948    
     30000   3.0929229      0.19760168     0              3.2827923      3.4735699    
     30500   3.0666974      0.14173357     0              3.2007642      2.9422973    
     31000   2.9689677      0.27240322     0              3.2339485      3.9577995    
     31500   3.0657935      0.15423613     0              3.2123651      3.2043416    
     32000   3.0989968      0.18398047     0              3.2752297      3.3369245    
     32500   3.0145786      0.15568328     0              3.1627254      3.2187647    
     33000   2.8946331      0.15540818     0              3.0428047      3.1465536    
     33500   2.929896       0.28950891     0              3.2120801      4.0900961    
     34000   3.0915         0.20925847     0              3.2930297      3.4993244    
     34500   3.0615704      0.27727637     0              3.3311929      4.0234566    
     35000   3.1802476      0.21410271     0              3.3863996      3.6977351    
     35500   3.0937671      0.27519323     0              3.3612259      3.9771041    
     36000   3.0175888      0.20669346     0              3.2167383      3.531203     
     36500   2.8171445      0.27226879     0              3.0823705      3.856764     
     37000   2.7722869      0.25766641     0              3.0230226      3.6733897    
     37500   2.6031303      0.24327486     0              2.8398973      3.470388     
     38000   2.7504264      0.25001675     0              2.9935671      3.6865436    
     38500   2.9909443      0.16601186     0              3.1494788      3.1370657    
     39000   2.8385564      0.25828066     0              3.0897407      3.7467605    
     39500   3.0297067      0.1536705      0              3.1758029      3.175194     
     40000   2.9778028      0.16282608     0              3.1331844      3.0855256    
     40500   3.3840299      0.11495141     0              3.4905212      3.0016333    
     41000   3.0423664      0.1765159      0              3.2112764      3.4285923    
     41500   3.1032169      0.21871255     0              3.3141714      3.6917236    
     42000   3.14266        0.20118391     0              3.3359872      3.5601482    
     42500   3.1274704      0.19524221     0              3.3148939      3.4232478    
     43000   3.2305589      0.15962326     0              3.3821057      3.2646515    
     43500   3.469375       0.17660216     0              3.6373037      3.4849195    
     44000   3.1052524      0.29765583     0              3.3951451      4.2800082    
     44500   2.9990154      0.23377629     0              3.2252942      3.7538425    
     45000   3.0964511      0.24128258     0              3.3299925      3.8550901    
     45500   2.9968057      0.27564127     0              3.264955       4.0083338    
     46000   3.1003713      0.17176754     0              3.2643879      3.3126238    
     46500   3.1374329      0.10505393     0              3.2346433      2.7534423    
     47000   2.9129643      0.2574448      0              3.1631266      3.8692882    
     47500   2.7945359      0.13839471     0              2.9259442      2.9273682    
     48000   2.9317584      0.1876175      0              3.1120465      3.3763079    
     48500   3.0149604      0.18905614     0              3.1964791      3.3247617    
     49000   3.0303611      0.18728754     0              3.2100727      3.3476693    
     49500   3.0100203      0.24527455     0              3.2477698      3.8722205    
     50000   3.1737056      0.1530035      0              3.3187748      3.2162442    
Loop time of 0.730083 on 4 procs for 50000 steps with 400 atoms

Performance: 59171383.890 tau/day, 68485.398 timesteps/s, 27.394 Matom-step/s
99.5% CPU use with 4 MPI tasks x 1 OpenMP threads

MPI task timing breakdown:
Section |  min time  |  avg time  |  max time  |%varavg| %total
---------------------------------------------------------------
Pair    | 0.066084   | 0.066814   | 0.068303   |   0.3 |  9.15
Neigh   | 0.16114    | 0.16267    | 0.16368    |   0.3 | 22.28
Comm    | 0.30329    | 0.30396    | 0.30459    |   0.1 | 41.63
Output  | 0.0010673  | 0.0012774  | 0.0018987  |   1.0 |  0.17
Modify  | 0.11724    | 0.11841    | 0.11909    |   0.2 | 16.22
Other   |            | 0.07696    |            |       | 10.54

Nlocal:            100 ave         106 max          90 min
Histogram: 1 0 0 0 0 0 1 0 1 1
Nghost:          36.75 ave          41 max          31 min
Histogram: 1 0 0 0 0 0 1 1 0 1
Neighs:             97 ave         112 max          83 min
Histogram: 1 1 0 0 0 0 0 1 0 1

Total # of neighbors = 388
Ave neighs/atom = 0.97
Neighbor list builds = 16984
Dangerous builds = 5
Generated 0 of 0 mixed pair_coeff terms from geometric mixing rule
Setting up Verlet run ...
  Unit style    : lj
  Current step  : 50000
  Time step     : 0.01
Per MPI rank memory allocation (min/avg/max) = 3.077 | 3.078 | 3.078 Mbytes
   Step          Temp          E_pair         E_mol          TotEng         Press     
     50000   3.1737056      0.1530035      0              3.3187748      3.2162442    
     50500   3.1000356      0.23048639     0              3.3227719      3.7460489    
     51000   3.0158928      0.18874333     0              3.1970964      3.4909756    
     51500   2.8607173      0.17608281     0              3.0296483      3.27935      
     52000   2.8625895      0.20500718     0              3.0604402      3.4177634    
     52500   2.756606       0.20636553     0              2.95608        3.4835753    
     53000   2.679485       0.28516965     0              2.9579559      3.795551     
     53500   2.8294987      0.14063036     0              2.9630553      2.9130058    
     54000   2.7594148      0.22333305     0              2.9758493      3.4061081    
     54500   2.774544       0.30321753     0              3.0708251      4.093003     
     55000   2.8988893      0.2029766      0              3.0946187      3.5356963    
     55500   3.0308728      0.24234388     0              3.2656395      3.6932119    
     56000   2.9419394      0.14599108     0              3.0805757      3.0603028    
     56500   2.8833976      0.19166407     0              3.0678532      3.3242565    
     57000   3.007897       0.15806803     0              3.1584452      3.1321318    
     57500   2.8031942      0.17532428     0              2.9715105      3.1324593    
     58000   2.8657001      0.21764826     0              3.0761841      3.554564     
     58500   2.8324478      0.21890486     0              3.0442715      3.4788736    
     59000   2.7721021      0.10414657     0              2.8693185      2.5654814    
     59500   2.4801912      0.14325269     0              2.6172434      2.7306447    
     60000   2.4254695      0.22510907     0              2.6445148      3.4218961    
     60500   2.5560457      0.19225245     0              2.7419081      3.3257713    
     61000   2.6331173      0.16573331     0              2.7922678      3.1168098    
     61500   2.5908585      0.22756337     0              2.8119447      3.6061884    
     62000   2.7723135      0.16566074     0              2.9310435      3.1352534    
     62500   2.9542192      0.25168342     0              3.1985171      3.9016124    
     63000   2.8448971      0.16695838     0              3.0047433      3.0499422    
     63500   2.6435998      0.20561995     0              2.8426107      3.3663422    
     64000   2.7411084      0.14268219     0              2.8769378      2.8588469    
     64500   2.6762019      0.15048883     0              2.8200002      2.921334     
     65000   2.5832375      0.11563527     0              2.6924147      2.5940913    
     65500   2.5039174      0.18251406     0              2.6801717      3.237952     
     66000   2.4535678      0.20997801     0              2.6574119      3.089544     
     66500   2.4302292      0.20085469     0              2.6250083      3.3013135    
     67000   2.3265559      0.14945832     0              2.4701978      2.8405509    
     67500   2.4481191      0.17017884     0              2.6121777      2.9640235    
     68000   2.424905       0.09682879     0              2.5156716      2.3459249    
     68500   2.443744       0.15972391     0              2.5973585      2.9484108    
     69000   2.3713268      0.17990972     0              2.5453082      2.8535983    
     69500   2.6143715      0.19629701     0              2.8041326      3.3263742    
     70000   2.5373826      0.1457326      0              2.6767717      2.8504391    
     70500   2.5514603      0.14410088     0              2.6891826      2.8318273    
     71000   2.411251       0.1663045      0              2.5715274      2.9842371    
     71500   2.4933245      0.16767752     0              2.6547687      2.9253187    
     72000   2.3528724      0.16649704     0              2.5134873      2.8686567    
     72500   2.3951978      0.18085624     0              2.5700661      3.0753848    
     73000   2.3369043      0.13272985     0              2.4637919      2.7103562    
     73500   2.2394999      0.11842433     0              2.3523255      2.498193     
     74000   2.0629716      0.17358717     0              2.2314014      2.8392569    
     74500   1.9858652      0.16951683     0              2.1504174      2.7656068    
     75000   2.1602647      0.18929967     0              2.3441637      2.9012297    
     75500   2.2680086      0.15986564     0              2.4222042      2.8553473    
     76000   2.2687206      0.1585407      0              2.4215895      2.7811882    
     76500   2.261638       0.19996372     0              2.4559476      3.0117813    
     77000   2.3216518      0.16974642     0              2.4855941      2.8059648    
     77500   2.1841994      0.18624043     0              2.3649793      2.8665214    
     78000   2.0295249      0.12629977     0              2.1507509      2.4128604    
     78500   2.1278899      0.10369919     0              2.2262694      2.2532047    
     79000   2.1607059      0.14681253     0              2.3021167      2.6118772    
     79500   2.1474759      0.19690736     0              2.3390146      3.0503789    
     80000   2.2977086      0.16257897     0              2.4545433      2.7224153    
     80500   2.1403094      0.15404312     0              2.2890018      2.626715     
     81000   2.263275       0.093458022    0              2.3510749      2.288485     
     81500   2.1701362      0.14291199     0              2.3076228      2.6297129    
     82000   2.1517885      0.17851236     0              2.3249213      2.9725422    
     82500   1.958443       0.08657109     0              2.040118       2.0708362    
     83000   1.9703558      0.14448094     0              2.1099109      2.4787034    
     83500   1.9544388      0.12220512     0              2.0717578      2.4225365    
     84000   1.9691024      0.15794129     0              2.1221209      2.6548186    
     84500   1.9919984      0.10947834     0              2.0964968      2.200365     
     85000   1.8947994      0.081336733    0              1.9713991      1.9544883    
     85500   1.7633669      0.080844413    0              1.8398029      1.9196701    
     86000   1.8544228      0.079694245    0              1.929481       1.8882298    
     86500   1.9133152      0.11225268     0              2.0207846      2.2461145    
     87000   1.8710751      0.17199788     0              2.0383952      2.7625477    
     87500   1.8901088      0.13624576     0              2.0216293      2.3909707    
     88000   1.9084269      0.074859594    0              1.9785155      1.9302302    
     88500   1.7891898      0.084992184    0              1.869709       1.9491439    
     89000   1.8188467      0.11202947     0              1.926329       2.3372861    
     89500   1.7385218      0.10819359     0              1.8423691      2.0914474    
     90000   1.8252752      0.14038264     0              1.9610947      2.4261802    
     90500   1.866161       0.14047068     0              2.0019663      2.4467775    
     91000   1.880059       0.14054156     0              2.0159004      2.5219403    
     91500   1.8085806      0.11674385     0              1.920803       2.249553     
     92000   1.6663996      0.099669687    0              1.7619032      2.0170206    
     92500   1.6206781      0.12362684     0              1.7402533      2.138685     
     93000   1.7735962      0.087688577    0              1.8568508      1.9657317    
     93500   1.8253267      0.081089615    0              1.901853       1.9144735    
     94000   1.7493345      0.095038689    0              1.8399998      2.0845382    
     94500   1.8742591      0.087739306    0              1.9573128      1.9147904    
     95000   1.7229742      0.13291652     0              1.8515833      2.3555029    
     95500   1.6558527      0.1435605      0              1.7952736      2.4966797    
     96000   1.7193084      0.063652802    0              1.7786629      1.7195446    
     96500   1.6610367      0.079467195    0              1.7363514      1.8949137    
     97000   1.6816355      0.089341214    0              1.7667726      1.966329     
     97500   1.6324683      0.090281212    0              1.7186684      1.8721944    
     98000   1.4665932      0.13037596     0              1.5933027      2.1478158    
     98500   1.5339762      0.089515755    0              1.6196571      1.8433718    
     99000   1.5371139      0.11212762     0              1.6453987      2.1195908    
     99500   1.5824536      0.10313246     0              1.68163        2.0624923    
    100000   1.7283478      0.089846376    0              1.8138733      1.9833743    
    100500   1.5814868      0.12061783     0              1.6981509      2.0864639    
    101000   1.5036744      0.10129024     0              1.6012054      1.9542875    
    101500   1.4986205      0.097205813    0              1.5920798      1.8925638    
    102000   1.4463151      0.094401012    0              1.5371003      1.8250792    
    102500   1.4643085      0.073281946    0              1.5339296      1.7584584    
    103000   1.4275557      0.073412128    0              1.497399       1.6754729    
    103500   1.3554084      0.085889038    0              1.4379089      1.7644636    
    104000   1.4411711      0.069146918    0              1.5067151      1.6105544    
    104500   1.429882       0.079253962    0              1.5055613      1.8020281    
    105000   1.4649956      0.092187562    0              1.5535207      1.8510919    
    105500   1.4872783      0.10169892     0              1.5852591      1.9855386    
    106000   1.4464311      0.082037604    0              1.5248526      1.7090111    
    106500   1.3635881      0.085643951    0              1.4458231      1.7273616    
    107000   1.3800956      0.085872919    0              1.4625183      1.7825349    
    107500   1.2217266      0.044789056    0              1.2634614      1.2532499    
    108000   1.2702644      0.044481115    0              1.3115699      1.2424067    
    108500   1.3116431      0.044521289    0              1.3528853      1.3585671    
    109000   1.1974566      0.072301897    0              1.2667649      1.4737083    
    109500   1.247246       0.086914546    0              1.3310424      1.6575613    
    110000   1.1789942      0.10097533     0              1.2770221      1.7696229    
    110500   1.1912922      0.084735489    0              1.2730495      1.599281     
    111000   1.2244704      0.051684608    0              1.2730939      1.4346701    
    111500   1.2514565      0.050230844    0              1.2985587      1.3758379    
    112000   1.2242268      0.057202219    0              1.2783685      1.3456403    
    112500   1.1567886      0.050863562    0              1.2047602      1.3797439    
    113000   1.1531561      0.055230019    0              1.2055032      1.2995595    
    113500   1.1719261      0.060964032    0              1.2299603      1.4317451    
    114000   1.1596779      0.071474124    0              1.2282528      1.527474     
    114500   1.1516086      0.063377705    0              1.2121073      1.3476842    
    115000   1.1912689      0.077898711    0              1.2661894      1.5626245    
    115500   1.1286447      0.043844352    0              1.1696674      1.283949     
    116000   1.1816086      0.057246358    0              1.2359009      1.3659205    
    116500   1.0728187      0.070219547    0              1.1403562      1.4173555    
    117000   1.0792113      0.058549866    0              1.1350631      1.3487866    
    117500   1.0386878      0.055654336    0              1.0917454      1.3305012    
    118000   1.0345708      0.04234828     0              1.0743327      1.1491383    
    118500   0.92982666     0.055979557    0              0.98348165     1.2651303    
    119000   0.98340967     0.037389463    0              1.0183406      1.1342631    
    119500   0.9435482      0.043187803    0              0.98437713     1.1647216    
    120000   0.97651741     0.071770769    0              1.0458469      1.4565115    
    120500   1.0659513      0.073253699    0              1.1365401      1.447742     
    121000   0.99370401     0.070278356    0              1.0614981      1.4595859    
    121500   0.96960031     0.041365006    0              1.0085413      1.1050458    
    122000   0.92912057     0.044630337    0              0.9714281      1.1046806    
    122500   0.97665524     0.043789278    0              1.0180029      1.1416376    
    123000   0.9139624      0.025459866    0              0.93713736     0.87711919   
    123500   0.86628055     0.044468006    0              0.90858285     1.0472701    
    124000   0.74256896     0.048382527    0              0.78909506     1.0234668    
    124500   0.77628758     0.051747937    0              0.8260948      1.1372683    
    125000   0.80021184     0.051951145    0              0.85016245     1.1453977    
    125500   0.80892283     0.039802062    0              0.84670258     1.0719236    
    126000   0.80323343     0.036835344    0              0.83806069     1.0158754    
    126500   0.80699275     0.058723179    0              0.86369845     1.20057      
    127000   0.88399214     0.033525269    0              0.91530743     1.0133399    
    127500   0.7889962      0.030050126    0              0.81707384     0.88414577   
    128000   0.74174063     0.040749437    0              0.78063572     0.95817912   
    128500   0.72736538     0.026849156    0              0.75239612     0.86214977   
    129000   0.63151022     0.039398752    0              0.66933019     0.82097015   
    129500   0.65971198     0.040998985    0              0.69906168     0.92836656   
    130000   0.68162892     0.038321684    0              0.71824653     0.95358279   
    130500   0.68566194     0.041099608    0              0.7250474      0.97988814   
    131000   0.67895155     0.027144708    0              0.70439887     0.82586395   
    131500   0.65626038     0.026417864    0              0.68103759     0.78033044   
    132000   0.6084929      0.02337147     0              0.63034314     0.71245271   
    132500   0.56030569     0.024073131    0              0.58297805     0.73265517   
    133000   0.51790397     0.038402606    0              0.55501182     0.85726904   
    133500   0.55592812     0.029526757    0              0.58406506     0.82359576   
    134000   0.56115231     0.022778696    0              0.58252813     0.72064657   
    134500   0.53433007     0.024097062    0              0.55709131     0.73742931   
    135000   0.54129699     0.019365463    0              0.55930921     0.60358639   
    135500   0.54165148     0.015896488    0              0.55619384     0.62880439   
    136000   0.53124967     0.024478806    0              0.55440035     0.71692043   
    136500   0.49072621     0.026980287    0              0.51647968     0.69034519   
    137000   0.49089013     0.023763665    0              0.51342657     0.68024238   
    137500   0.42452289     0.016226572    0              0.43968815     0.51685919   
    138000   0.43124285     0.015362285    0              0.44552703     0.48152296   
    138500   0.42395609     0.019866081    0              0.44276228     0.57852815   
    139000   0.40901905     0.018775045    0              0.42677154     0.60901733   
    139500   0.39804358     0.027332608    0              0.42438108     0.65991852   
    140000   0.42763875     0.013526804    0              0.44009645     0.54438599   
    140500   0.37213634     0.017801564    0              0.38900756     0.56301006   
    141000   0.36091672     0.012986818    0              0.37300124     0.47075441   
    141500   0.32526013     0.012102456    0              0.33654944     0.46134402   
    142000   0.3274548      0.013734742    0              0.3403709      0.45991562   
    142500   0.33491581     0.0091492755   0              0.3432278      0.40401448   
    143000   0.32541737     0.015079626    0              0.33968345     0.45489278   
    143500   0.31150426     0.0071333308   0              0.31785883     0.34729586   
    144000   0.28339935     0.0075079947   0              0.29019885     0.32791623   
    144500   0.24680986     0.0088059258   0              0.25499876     0.35317742   
    145000   0.22764641     0.013191089    0              0.24026838     0.40627087   
    145500   0.2282383      0.0070370538   0              0.23470476     0.28307735   
    146000   0.21758408     0.005835095    0              0.22287521     0.2805946    
    146500   0.20811755     0.0054769251   0              0.21307418     0.24528191   
    147000   0.20019652     0.0047321014   0              0.20442813     0.23644986   
    147500   0.19011349     0.0053954296   0              0.19503364     0.24300312   
    148000   0.15401239     0.002277201    0              0.15590456     0.16143779   
    148500   0.13612608     0.0041081411   0              0.13989391     0.18652842   
    149000   0.12893739     0.0032614523   0              0.1318765      0.18015628   
    149500   0.12022168     0.002781458    0              0.12270258     0.17518392   
    150000   0.10180381     0.0016882196   0              0.10323752     0.12209755   
Loop time of 1.54707 on 4 procs for 100000 steps with 400 atoms

Performance: 55847659.337 tau/day, 64638.495 timesteps/s, 25.855 Matom-step/s
95.2% CPU use with 4 MPI tasks x 1 OpenMP threads

MPI task timing breakdown:
Section |  min time  |  avg time  |  max time  |%varavg| %total
---------------------------------------------------------------
Pair    | 0.115      | 0.11669    | 0.11996    |   0.6 |  7.54
Neigh   | 0.23636    | 0.23707    | 0.23754    |   0.1 | 15.32
Comm    | 0.55066    | 0.55274    | 0.55461    |   0.2 | 35.73
Output  | 0.26161    | 0.26199    | 0.26311    |   0.1 | 16.93
Modify  | 0.2348     | 0.23531    | 0.23606    |   0.1 | 15.21
Other   |            | 0.1433     |            |       |  9.26

Nlocal:            100 ave         105 max          95 min
Histogram: 1 0 1 0 0 0 0 0 1 1
Nghost:          41.75 ave          43 max          40 min
Histogram: 1 0 0 0 0 0 2 0 0 1
Neighs:          94.75 ave         108 max          83 min
Histogram: 2 0 0 0 0 0 0 0 1 1

Total # of neighbors = 379
Ave neighs/atom = 0.9475
Neighbor list builds = 24809
Dangerous builds = 0
Total wall time: 0:00:02
LAMMPS (15 Sep 2022)
OMP_NUM_THREADS environment is not set. Defaulting to 1 thread. (src/comm.cpp:98)
  using 1 OpenMP thread(s) per MPI task
Lattice spacing in x,y,z = 1.2909944 1.2909944 1.2909944
Created orthogonal box = (0 0 -0.64549722) to (25.819889 25.819889 0.64549722)
  2 by 2 by 1 MPI processor grid
Created 400 atoms
  using lattice units in orthogonal box = (0 0 -0.64549722) to (25.819889 25.819889 0.64549722)
  create_atoms CPU = 0.000 seconds
Generated 0 of 0 mixed pair_coeff terms from geometric mixing rule
Neighbor list info ...
  update: every = 1 steps, delay = 0 steps, check = yes
  max neighbors/atom: 2000, page size: 100000
  master list distance cutoff = 1.3
  ghost atom cutoff = 1.3
  binsize = 0.65, bins = 40 40 2
  1 neighbor lists, perpetual/occasional/extra = 1 0 0
  (1) pair lj/cut, perpetual
      attributes: half, newton on
      pair build: half/bin/atomonly/newton
      stencil: half/bin/2d
      bin: standard
Setting up Verlet run ...
  Unit style    : lj
  Current step  : 0
  Time step     : 0.01
Per MPI rank memory allocation (min/avg/max) = 3.05 | 3.05 | 3.05 Mbytes
   Step          Temp          E_pair         E_mol          TotEng         Press     
         0   3              0              0              2.9925         1.7955       
       500   2.8929957      0.25893444     0              3.1446977      4.90195      
      1000   2.9806224      0.2427474      0              3.2159183      4.9354429    
      1500   2.8920101      0.35753213     0              3.2423122      5.6409308    
      2000   2.8234428      0.43424648     0              3.2506306      6.5199702    
      2500   2.8827149      0.37843119     0              3.2539393      5.7555105    
      3000   2.9292634      0.28906745     0              3.2110077      5.1529358    
      3500   3.0527054      0.25792085     0              3.3029945      4.8255962    
      4000   3.099724       0.34501706     0              3.4369917      5.7311008    
      4500   3.2581101      0.2606823      0              3.5106471      5.1904369    
      5000   3.2413867      0.41940359     0              3.6526868      6.4068864    
      5500   2.8679969      0.28927112     0              3.1500981      5.0316627    
      6000   2.8597112      0.32203056     0              3.1745925      5.3379974    
      6500   3.0072803      0.26191762     0              3.2616798      4.966316     
      7000   2.8022702      0.27585384     0              3.0711184      5.1074275    
      7500   2.9766722      0.28289784     0              3.2521284      5.1559513    
      8000   2.9683158      0.29948141     0              3.2603764      5.1885856    
      8500   3.0078108      0.346012       0              3.3463032      5.6781068    
      9000   3.0815164      0.22553191     0              3.2993445      4.8317434    
      9500   2.972269       0.34558578     0              3.3104241      5.6115378    
     10000   2.9340618      0.29245145     0              3.2191781      5.3765249    
     10500   2.911619       0.35648932     0              3.2608293      5.719524     
     11000   2.849693       0.3106562      0              3.1532249      5.4464874    
     11500   2.874076       0.22959952     0              3.0964903      4.6021578    
     12000   2.5556441      0.27689279     0              2.8261478      4.9430497    
     12500   2.7409773      0.34629251     0              3.0804174      5.5585413    
     13000   2.9945569      0.27640771     0              3.2634782      5.0774472    
     13500   2.9189455      0.31284767     0              3.2244958      5.2421618    
     14000   3.0299267      0.24128394     0              3.2636359      4.8389924    
     14500   2.82641        0.29108619     0              3.1104302      5.2103075    
     15000   2.8414447      0.41525936     0              3.2496005      6.1428478    
     15500   3.0229126      0.34291476     0              3.3582701      5.6498924    
     16000   3.0258468      0.30101459     0              3.3192968      5.4114861    
     16500   3.1436782      0.30861655     0              3.4444355      5.3568355    
     17000   3.1393882      0.34211787     0              3.4736576      5.8719911    
     17500   2.8808297      0.30114472     0              3.1747724      5.2325166    
     18000   2.796326       0.26753056     0              3.0568657      5.010348     
     18500   2.8776776      0.28307027     0              3.1535537      5.1244075    
     19000   2.929233       0.292047       0              3.2139569      5.4584838    
     19500   2.92884        0.27992714     0              3.2014451      4.9323355    
     20000   2.821752       0.30502251     0              3.1197202      5.4180837    
     20500   3.0644394      0.34899307     0              3.4057714      5.6383466    
     21000   3.0606461      0.34055357     0              3.393548       5.602253     
     21500   3.0987693      0.38342835     0              3.4744507      5.8424016    
     22000   3.1299629      0.29582494     0              3.417963       5.4138864    
     22500   3.0883323      0.29341618     0              3.3740277      5.1667092    
     23000   3.0405752      0.2886027      0              3.3215764      5.1862346    
     23500   2.8707221      0.28894923     0              3.1524945      4.918224     
     24000   2.9433546      0.30753584     0              3.2435321      5.6208259    
     24500   2.9722205      0.30404924     0              3.2688392      5.2483465    
     25000   3.1264         0.3380456      0              3.4566296      5.7073125    
     25500   3.1127322      0.31437063     0              3.419321       5.5280849    
     26000   3.0786621      0.35523289     0              3.4261984      5.9697919    
     26500   3.2129051      0.31646277     0              3.5213356      5.5847775    
     27000   3.3666878      0.36669893     0              3.72497        5.9417864    
     27500   3.1060264      0.30985965     0              3.4081209      5.441845     
     28000   3.0803815      0.31060167     0              3.3832823      5.4463953    
     28500   3.1665926      0.32699158     0              3.4856677      5.5507298    
     29000   3.3151787      0.22607987     0              3.5329706      4.898015     
     29500   2.8372605      0.28489753     0              3.1150649      5.0845059    
     30000   3.0350598      0.27477495     0              3.3022471      5.1438994    
     30500   2.9334835      0.29241965     0              3.2185695      5.1073045    
     31000   3.0261316      0.26061321     0              3.2791794      5.1142982    
     31500   2.8705774      0.30405561     0              3.1674566      5.1742068    
     32000   2.7305378      0.27603925     0              2.9997507      4.8142302    
     32500   2.9992649      0.20009569     0              3.1918624      4.4415132    
     33000   3.046694       0.31265347     0              3.3517308      5.4524012    
     33500   3.039678       0.25914477     0              3.2912236      5.0996999    
     34000   3.0428197      0.3623508      0              3.3975634      5.8637566    
     34500   3.0201462      0.31326928     0              3.3258651      5.4695208    
     35000   3.1089688      0.37614022     0              3.4773366      5.980321     
     35500   3.0717444      0.32132071     0              3.3853857      5.6421802    
     36000   3.1832011      0.34736446     0              3.5226076      5.8021805    
     36500   3.1910237      0.25340911     0              3.4364553      5.0537605    
     37000   3.240917       0.31087397     0              3.5436887      5.6675528    
     37500   2.9941584      0.35352996     0              3.340203       5.7609168    
     38000   2.9405095      0.28051104     0              3.2136692      5.109114     
     38500   2.745168       0.32097258     0              3.0592777      5.2241877    
     39000   2.7209112      0.25149642     0              2.9656054      4.810417     
     39500   2.806189       0.29529405     0              3.0944676      5.0839307    
     40000   2.9265969      0.26725181     0              3.1865322      4.9800757    
     40500   2.8884715      0.28804802     0              3.1692984      4.8918691    
     41000   2.8609616      0.21219977     0              3.066009       4.3873013    
     41500   2.7232164      0.37773387     0              3.0941422      5.6939693    
     42000   2.9265266      0.23668485     0              3.1558951      4.8349885    
     42500   2.8901331      0.27490061     0              3.1578084      5.0212172    
     43000   2.6881678      0.35281289     0              3.0342603      5.3973431    
     43500   2.8558345      0.2130993      0              3.0617942      4.4399335    
     44000   3.0571824      0.27663182     0              3.3261712      4.9998642    
     44500   2.9186819      0.26519031     0              3.1765755      4.9249854    
     45000   2.8842377      0.33109593     0              3.2081231      5.331649     
     45500   2.5492463      0.37711415     0              2.9199873      5.6498196    
     46000   2.8707223      0.30968816     0              3.1732336      5.3532714    
     46500   3.0290714      0.29443092     0              3.3159296      5.1638473    
     47000   3.1127594      0.38816729     0              3.4931448      6.4801214    
     47500   2.9758829      0.36557203     0              3.3340152      5.4048772    
     48000   3.1688252      0.36211262     0              3.5230158      5.95953      
     48500   3.0976227      0.28458637     0              3.374465       5.2938915    
     49000   3.030094       0.3183014      0              3.3408202      5.6658795    
     49500   3.015715       0.26040272     0              3.2685784      4.6971572    
     50000   2.9950324      0.29152629     0              3.2790711      5.1915489    
Loop time of 0.765701 on 4 procs for 50000 steps with 400 atoms

Performance: 56418881.142 tau/day, 65299.631 timesteps/s, 26.120 Matom-step/s
98.7% CPU use with 4 MPI tasks x 1 OpenMP threads

MPI task timing breakdown:
Section |  min time  |  avg time  |  max time  |%varavg| %total
---------------------------------------------------------------
Pair    | 0.077326   | 0.078612   | 0.079539   |   0.3 | 10.27
Neigh   | 0.17964    | 0.18092    | 0.18205    |   0.2 | 23.63
Comm    | 0.30493    | 0.30627    | 0.30799    |   0.2 | 40.00
Output  | 0.0010513  | 0.0012542  | 0.0018607  |   1.0 |  0.16
Modify  | 0.11884    | 0.12168    | 0.12374    |   0.5 | 15.89
Other   |            | 0.07696    |            |       | 10.05

Nlocal:            100 ave         102 max          95 min
Histogram: 1 0 0 0 0 0 0 0 1 2
Nghost:          45.25 ave          53 max          38 min
Histogram: 1 0 0 0 1 1 0 0 0 1
Neighs:         120.75 ave         137 max         108 min
Histogram: 1 0 1 0 0 1 0 0 0 1

Total # of neighbors = 483
Ave neighs/atom = 1.2075
Neighbor list builds = 16916
Dangerous builds = 0
Generated 0 of 0 mixed pair_coeff terms from geometric mixing rule
Setting up Verlet run ...
  Unit style    : lj
  Current step  : 50000
  Time step     : 0.01
Per MPI rank memory allocation (min/avg/max) = 3.077 | 3.077 | 3.077 Mbytes
   Step          Temp          E_pair         E_mol          TotEng         Press     
     50000   2.9950324      0.29152629     0              3.2790711      5.1915489    
     50500   2.7691173      0.31776392     0              3.0799585      5.6622671    
     51000   2.8661862      0.37446702     0              3.2334878      6.0053388    
     51500   2.7367904      0.32265378     0              3.0526022      5.4112114    
     52000   2.8443004      0.37588482     0              3.2130744      5.6435036    
     52500   2.8548346      0.2281695      0              3.075867       4.6381543    
     53000   2.7977505      0.31651098     0              3.1072671      5.3372432    
     53500   2.5394678      0.2395201      0              2.7726393      4.5021037    
     54000   2.7170259      0.28756796     0              2.9978013      4.7614801    
     54500   2.8586066      0.29182685     0              3.143287       5.2966748    
     55000   2.8383334      0.32523014     0              3.1564677      5.2956162    
     55500   2.9208177      0.30493422     0              3.2184499      5.2383388    
     56000   2.8505708      0.2859031      0              3.1293475      5.0576665    
     56500   3.0803759      0.15645783     0              3.2291327      3.9364559    
     57000   2.8657805      0.26513477     0              3.1237509      4.7000644    
     57500   2.9513033      0.32373312     0              3.2676582      5.4193162    
     58000   2.7703065      0.3136837      0              3.0770644      5.3179172    
     58500   2.929722       0.27123972     0              3.1936374      4.9057222    
     59000   3.0583897      0.39982259     0              3.4505663      5.9554375    
     59500   2.8238653      0.41209628     0              3.2289019      6.0741194    
     60000   2.64315        0.38054603     0              3.0170882      5.4825388    
     60500   2.7822582      0.29720734     0              3.0725099      5.0132438    
     61000   2.8303837      0.28124393     0              3.1045517      5.0533097    
     61500   2.6962452      0.28205487     0              2.9715594      5.0256581    
     62000   2.6699002      0.28681629     0              2.9500418      5.090009     
     62500   2.747004       0.28717062     0              3.0273071      5.3376282    
     63000   2.5688569      0.2360098      0              2.7984446      4.341485     
     63500   2.5775907      0.25039333     0              2.8215401      4.7934773    
     64000   2.4211758      0.25292573     0              2.6680486      4.3501412    
     64500   2.5482256      0.2570598      0              2.7989149      4.3819479    
     65000   2.5436884      0.25381573     0              2.7911449      4.4418026    
     65500   2.827523       0.27099539     0              3.0914495      4.9936979    
     66000   2.6451802      0.21672471     0              2.855292       4.3219742    
     66500   2.615967       0.26691309     0              2.8763402      4.5539218    
     67000   2.5021506      0.30306973     0              2.798965       4.8292437    
     67500   2.6779751      0.25369233     0              2.9249725      4.8326707    
     68000   2.7408184      0.26712841     0              3.0010948      4.7140888    
     68500   2.5460715      0.23503162     0              2.7747379      4.4655484    
     69000   2.5766804      0.33842432     0              2.908663       5.1952814    
     69500   2.5310934      0.23684872     0              2.7616144      4.3892152    
     70000   2.5126561      0.37253213     0              2.8789066      5.6546981    
     70500   2.4703328      0.19806661     0              2.6622236      4.0462875    
     71000   2.6386961      0.2140876      0              2.8461869      4.122492     
     71500   2.4165478      0.21202616     0              2.6225326      4.2622572    
     72000   2.3239665      0.27426647     0              2.592423       4.760163     
     72500   2.320449       0.18191699     0              2.4965649      3.8013056    
     73000   2.2175456      0.14522272     0              2.3572245      3.3525924    
     73500   2.2593529      0.30217083     0              2.5558754      5.0659235    
     74000   2.271505       0.22497909     0              2.4908053      3.9959474    
     74500   2.3222306      0.2306357      0              2.5470607      4.1009241    
     75000   2.1899104      0.19278318     0              2.3772188      3.9289654    
     75500   2.2319347      0.19708266     0              2.4234376      3.8586117    
     76000   2.225128       0.1619532      0              2.3815184      3.4854793    
     76500   2.1295691      0.17533502     0              2.2995802      3.6183578    
     77000   2.2189397      0.20226761     0              2.41566        3.9205257    
     77500   2.1994294      0.10189769     0              2.2958285      2.928868     
     78000   2.2250335      0.1678024      0              2.3872734      3.8042793    
     78500   2.2279331      0.19836226     0              2.4207255      3.9180337    
     79000   2.3077007      0.19691879     0              2.4988503      4.1729937    
     79500   2.2148963      0.18575247     0              2.3951115      3.7698822    
     80000   2.1699622      0.17909388     0              2.3436312      3.7549856    
     80500   2.1510362      0.22918369     0              2.3748423      4.1204422    
     81000   2.1868526      0.23474932     0              2.4161348      4.0734584    
     81500   2.2575332      0.15365586     0              2.4055453      3.5303209    
     82000   2.1468747      0.21773675     0              2.3592443      3.9536927    
     82500   2.0774644      0.22835773     0              2.3006285      3.8957054    
     83000   2.0602002      0.25487618     0              2.3099258      4.5052598    
     83500   2.0734242      0.19495665     0              2.2631972      3.8175782    
     84000   2.0089623      0.23009788     0              2.2340378      4.0504069    
     84500   1.8877648      0.10789931     0              1.9909447      2.77877      
     85000   1.8306946      0.16238806     0              1.9885059      3.4808648    
     85500   1.9094184      0.14281232     0              2.0474572      3.2932077    
     86000   1.882527       0.20765798     0              2.0854787      3.6952817    
     86500   1.8430961      0.14761766     0              1.986106       3.1693383    
     87000   1.9240425      0.16622397     0              2.0854563      3.4428303    
     87500   1.8423145      0.14140069     0              1.9791095      3.2229964    
     88000   1.8894875      0.17474361     0              2.0595074      3.6122153    
     88500   1.8803123      0.15786614     0              2.0334777      3.332661     
     89000   1.8231393      0.19545219     0              2.0140336      3.7486798    
     89500   1.8954595      0.11604279     0              2.0067636      2.8467182    
     90000   1.94049        0.13517467     0              2.0708135      3.080163     
     90500   1.8707619      0.12678815     0              1.9928732      2.9664966    
     91000   1.8338887      0.15978719     0              1.9890912      3.4443889    
     91500   1.8202903      0.1400934      0              1.955833       3.1476257    
     92000   1.8357302      0.10289158     0              1.9340324      2.768698     
     92500   1.694399       0.16031964     0              1.8504827      3.2557351    
     93000   1.5849594      0.15771808     0              1.7387151      3.1613745    
     93500   1.705379       0.13451856     0              1.8356341      2.9790238    
     94000   1.6778408      0.181917       0              1.8555632      3.3822899    
     94500   1.6980264      0.15701957     0              1.8508009      3.1688068    
     95000   1.6152724      0.12774938     0              1.7389836      2.9289858    
     95500   1.6573529      0.14096401     0              1.7941735      2.9832228    
     96000   1.5215848      0.19347455     0              1.7112554      3.6314358    
     96500   1.631616       0.14847917     0              1.7760161      3.1096232    
     97000   1.5482769      0.14314122     0              1.6875474      2.9283343    
     97500   1.6322027      0.12492849     0              1.7530507      2.9201065    
     98000   1.6663662      0.18401135     0              1.8462116      3.2962286    
     98500   1.6403446      0.13934394     0              1.7755877      3.0976557    
     99000   1.6233027      0.11518312     0              1.7344275      2.658912     
     99500   1.6247975      0.13246497     0              1.7532005      2.9381101    
    100000   1.690439       0.14152631     0              1.8277392      3.0672271    
    100500   1.5800354      0.14986866     0              1.725954       3.204192     
    101000   1.5206678      0.11525968     0              1.6321258      2.801876     
    101500   1.4964138      0.10623228     0              1.5989051      2.5436421    
    102000   1.4682212      0.11742064     0              1.5819712      2.6861808    
    102500   1.4745852      0.12954944     0              1.6004482      2.8128791    
    103000   1.4100533      0.12046291     0              1.5269911      2.6622422    
    103500   1.4468629      0.11338225     0              1.556628       2.6795104    
    104000   1.3584324      0.13596573     0              1.491002       2.7509242    
    104500   1.3286579      0.097648357    0              1.4229846      2.407027     
    105000   1.2700953      0.091169239    0              1.3580893      2.2639916    
    105500   1.3648586      0.1078753      0              1.4693218      2.4719328    
    106000   1.3387124      0.13054386     0              1.4659095      2.7565494    
    106500   1.3781955      0.114659       0              1.489409       2.6827737    
    107000   1.4046167      0.11462406     0              1.5157292      2.5693176    
    107500   1.5094036      0.12171425     0              1.6273444      2.6122404    
    108000   1.4611237      0.099781716    0              1.5572526      2.3365767    
    108500   1.3119436      0.12934794     0              1.4380117      2.6442969    
    109000   1.2823682      0.096554001    0              1.3757163      2.3137235    
    109500   1.2152514      0.10811702     0              1.3203303      2.4065863    
    110000   1.2421078      0.096295233    0              1.3352977      2.2343694    
    110500   1.2102164      0.078995549    0              1.2861865      1.9348203    
    111000   1.240311       0.088308722    0              1.3255189      2.2414226    
    111500   1.1632276      0.10035267     0              1.2606722      2.194977     
    112000   1.2291695      0.087298273    0              1.3133948      2.2577764    
    112500   1.2202516      0.098361704    0              1.3155626      2.2961023    
    113000   1.2836054      0.094561183    0              1.3749576      2.2152916    
    113500   1.1650453      0.084034387    0              1.2461671      2.0615281    
    114000   1.1798299      0.088319495    0              1.2651999      2.1325222    
    114500   1.0912017      0.14083078     0              1.2293045      2.6441915    
    115000   1.0888805      0.10485652     0              1.1910148      2.3208526    
    115500   1.03916        0.091717895    0              1.12828        2.1446024    
    116000   1.0112976      0.07307028     0              1.0818397      1.9010793    
    116500   1.069524       0.099988001    0              1.1668382      2.1206403    
    117000   1.0610299      0.10246756     0              1.1608448      2.253502     
    117500   1.0229984      0.078808864    0              1.0992498      1.9522736    
    118000   0.93356614     0.071310079    0              1.0025423      1.7680729    
    118500   0.95011457     0.047820731    0              0.99556002     1.4939133    
    119000   0.96283297     0.061130789    0              1.0215567      1.6660198    
    119500   0.99352198     0.057127795    0              1.048166       1.6130526    
    120000   0.90895002     0.091085414    0              0.99776306     2.0183947    
    120500   0.97603773     0.060920328    0              1.034518       1.6319994    
    121000   0.98671976     0.07480513     0              1.0590581      1.9184369    
    121500   0.9803016      0.10007028     0              1.0779211      2.2206793    
    122000   0.96572238     0.062245089    0              1.0255532      1.6280838    
    122500   0.91715963     0.063248561    0              0.97811529     1.70625      
    123000   0.9253204      0.065275297    0              0.98828239     1.6546031    
    123500   0.8234249      0.047837516    0              0.86920385     1.4558435    
    124000   0.80072386     0.063160736    0              0.86188278     1.6669832    
    124500   0.79889605     0.074092615    0              0.87099142     1.7807156    
    125000   0.77843756     0.054180679    0              0.83067215     1.4565836    
    125500   0.7909253      0.059595668    0              0.84854366     1.5340497    
    126000   0.78583895     0.058742082    0              0.84261644     1.5303324    
    126500   0.80850401     0.065587743    0              0.8720705      1.6030931    
    127000   0.83622557     0.051190354    0              0.88532536     1.4565003    
    127500   0.82747591     0.030220407    0              0.85562763     1.1334919    
    128000   0.70463001     0.048714023    0              0.75158246     1.4549712    
    128500   0.69071322     0.043857685    0              0.73284412     1.2658649    
    129000   0.68830305     0.043984708    0              0.730567       1.2839699    
    129500   0.67680428     0.042772959    0              0.71788523     1.2672867    
    130000   0.66012016     0.056579634    0              0.71504949     1.39858      
    130500   0.74103858     0.047555581    0              0.78674156     1.3447652    
    131000   0.7067182      0.042563624    0              0.74751503     1.3173265    
    131500   0.65340206     0.045049756    0              0.69681831     1.3240137    
    132000   0.61191366     0.027395915    0              0.63777979     0.95847962   
    132500   0.57114242     0.033588919    0              0.60330348     1.0846112    
    133000   0.54409029     0.023399075    0              0.56612914     0.93057811   
    133500   0.57434043     0.032919739    0              0.60582432     1.0199117    
    134000   0.56502351     0.041882637    0              0.60549359     1.1964122    
    134500   0.57425815     0.051149518    0              0.62397202     1.3060752    
    135000   0.5430074      0.033641343    0              0.57529122     1.0890467    
    135500   0.56446712     0.032440934    0              0.59549689     1.0003546    
    136000   0.5117398      0.044083399    0              0.55454385     1.1825924    
    136500   0.49633633     0.029894161    0              0.52498965     0.97001941   
    137000   0.48811249     0.0227564      0              0.50964861     0.85903673   
    137500   0.47465116     0.029354866    0              0.50281939     0.9937841    
    138000   0.43456036     0.019010179    0              0.45248414     0.71584037   
    138500   0.43259691     0.01850594     0              0.45002136     0.74029173   
    139000   0.38824514     0.034542996    0              0.42181753     0.9118771    
    139500   0.40033323     0.018131375    0              0.41746377     0.76317768   
    140000   0.39533779     0.016612994    0              0.41096244     0.66950926   
    140500   0.40438952     0.022853841    0              0.42623239     0.73468821   
    141000   0.4125929      0.019747906    0              0.43130932     0.75575328   
    141500   0.36666524     0.013190697    0              0.37893927     0.60570881   
    142000   0.33590446     0.016239646    0              0.35130434     0.64709414   
    142500   0.3034414      0.015582324    0              0.31826512     0.60731177   
    143000   0.29699002     0.018698117    0              0.31494567     0.70325516   
    143500   0.28790574     0.0091855188   0              0.29637149     0.45961717   
    144000   0.2835059      0.012731012    0              0.29552815     0.54986536   
    144500   0.27571312     0.014441239    0              0.28946507     0.58375469   
    145000   0.27332458     0.013047313    0              0.28568859     0.55317012   
    145500   0.23536536     0.007642989    0              0.24241994     0.43165949   
    146000   0.20963701     0.0066662011   0              0.21577912     0.37126233   
    146500   0.19315836     0.0057291474   0              0.19840461     0.34676191   
    147000   0.18201665     0.0093277892   0              0.1908894      0.411566     
    147500   0.16065533     0.009293836    0              0.16954753     0.38064461   
    148000   0.15396899     0.0054868424   0              0.15907091     0.29712818   
    148500   0.14683779     0.0052246638   0              0.15169536     0.30063289   
    149000   0.13724506     0.0042857841   0              0.14118773     0.28648827   
    149500   0.11533197     0.0042902717   0              0.11933392     0.27027225   
    150000   0.10536021     0.003112497    0              0.10820931     0.21948054   
Loop time of 1.35507 on 4 procs for 100000 steps with 400 atoms

Performance: 63760329.526 tau/day, 73796.678 timesteps/s, 29.519 Matom-step/s
99.3% CPU use with 4 MPI tasks x 1 OpenMP threads

MPI task timing breakdown:
Section |  min time  |  avg time  |  max time  |%varavg| %total
---------------------------------------------------------------
Pair    | 0.13628    | 0.13795    | 0.14002    |   0.4 | 10.18
Neigh   | 0.26197    | 0.2631     | 0.26431    |   0.2 | 19.42
Comm    | 0.56028    | 0.56203    | 0.56434    |   0.2 | 41.48
Output  | 0.011619   | 0.012014   | 0.013178   |   0.6 |  0.89
Modify  | 0.23467    | 0.23745    | 0.24217    |   0.6 | 17.52
Other   |            | 0.1425     |            |       | 10.52

Nlocal:            100 ave         104 max          95 min
Histogram: 1 0 0 0 1 0 0 1 0 1
Nghost:             45 ave          49 max          41 min
Histogram: 1 0 1 0 0 0 0 1 0 1
Neighs:            129 ave         137 max         121 min
Histogram: 1 0 1 0 0 0 0 1 0 1

Total # of neighbors = 516
Ave neighs/atom = 1.29
Neighbor list builds = 24649
Dangerous builds = 0
Total wall time: 0:00:02
LAMMPS (15 Sep 2022)
OMP_NUM_THREADS environment is not set. Defaulting to 1 thread. (src/comm.cpp:98)
  using 1 OpenMP thread(s) per MPI task
Lattice spacing in x,y,z = 1.1952286 1.1952286 1.1952286
Created orthogonal box = (0 0 -0.5976143) to (23.904572 23.904572 0.5976143)
  2 by 2 by 1 MPI processor grid
Created 400 atoms
  using lattice units in orthogonal box = (0 0 -0.5976143) to (23.904572 23.904572 0.5976143)
  create_atoms CPU = 0.000 seconds
Generated 0 of 0 mixed pair_coeff terms from geometric mixing rule
Neighbor list info ...
  update: every = 1 steps, delay = 0 steps, check = yes
  max neighbors/atom: 2000, page size: 100000
  master list distance cutoff = 1.3
  ghost atom cutoff = 1.3
  binsize = 0.65, bins = 37 37 2
  1 neighbor lists, perpetual/occasional/extra = 1 0 0
  (1) pair lj/cut, perpetual
      attributes: half, newton on
      pair build: half/bin/atomonly/newton
      stencil: half/bin/2d
      bin: standard
Setting up Verlet run ...
  Unit style    : lj
  Current step  : 0
  Time step     : 0.01
Per MPI rank memory allocation (min/avg/max) = 3.05 | 3.05 | 3.05 Mbytes
   Step          Temp          E_pair         E_mol          TotEng         Press     
         0   3              0              0              2.9925         2.09475      
       500   2.8339205      0.48395253     0              3.3107882      8.1979887    
      1000   2.8592779      0.48827178     0              3.3404015      8.1199516    
      1500   2.9163639      0.37281304     0              3.281886       7.4118064    
      2000   2.9863177      0.41785459     0              3.3967065      7.7936349    
      2500   2.6345133      0.40649609     0              3.0344231      7.2951459    
      3000   2.6276584      0.53659672     0              3.157686       8.4831576    
      3500   2.9403776      0.38687396     0              3.3199006      7.3432903    
      4000   2.8586558      0.49787002     0              3.3493792      8.1828242    
      4500   3.1797145      0.45976558     0              3.6315308      8.4357816    
      5000   3.124444       0.58071877     0              3.6973517      9.4305554    
      5500   3.15088        0.48622014     0              3.6292229      8.7200341    
      6000   3.043573       0.45397289     0              3.489937       7.957312     
      6500   2.9555639      0.57562462     0              3.5237996      9.4329777    
      7000   3.1277601      0.569001       0              3.6889417      9.5226759    
      7500   3.1504296      0.36795245     0              3.510506       7.387831     
      8000   3.0287549      0.50414052     0              3.5253236      8.7061261    
      8500   3.3308563      0.36321442     0              3.6857436      7.4406503    
      9000   3.069999       0.43025581     0              3.4925798      8.134676     
      9500   3.1350867      0.3812104      0              3.5084594      7.6931693    
     10000   2.8874776      0.50368996     0              3.3839489      8.7273034    
     10500   2.9018635      0.44168711     0              3.336296       8.1316916    
     11000   2.8366746      0.55182728     0              3.3814102      9.1135891    
     11500   2.9787331      0.46293544     0              3.4342217      8.1751546    
     12000   2.950241       0.42767455     0              3.3705399      7.8280711    
     12500   2.9798714      0.47771729     0              3.450139       8.1811521    
     13000   2.8999429      0.46831439     0              3.3610074      8.5347371    
     13500   2.8342576      0.40867356     0              3.2358455      7.7580351    
     14000   3.0162755      0.35912762     0              3.3678624      7.4184021    
     14500   2.8470763      0.35523115     0              3.1951897      7.0795994    
     15000   2.969345       0.4302791      0              3.3922007      8.0730256    
     15500   2.7626869      0.47233706     0              3.2281172      8.3770277    
     16000   2.9212222      0.47342885     0              3.387348       8.0766858    
     16500   2.8945375      0.41109291     0              3.2983941      7.747922     
     17000   2.7610141      0.41828037     0              3.1723919      7.6470853    
     17500   2.9593932      0.35344941     0              3.3054441      7.2659903    
     18000   3.0503508      0.46842512     0              3.5111501      8.38329      
     18500   3.0316895      0.49282543     0              3.5169357      8.7356354    
     19000   3.1788026      0.35862254     0              3.5294782      7.4862324    
     19500   2.9971003      0.49823447     0              3.487842       8.2637834    
     20000   3.0363662      0.54263877     0              3.5714141      9.004339     
     20500   3.2369467      0.52323256     0              3.7520869      9.3100358    
     21000   3.1888259      0.47714611     0              3.6579999      8.3615875    
     21500   3.1416941      0.49802726     0              3.6318672      8.2785022    
     22000   3.0100561      0.42193085     0              3.4244618      7.8725585    
     22500   3.0718095      0.36088228     0              3.4250123      7.5834586    
     23000   2.9085235      0.39828944     0              3.2995416      7.5503704    
     23500   2.9081156      0.45094468     0              3.35179        7.9976607    
     24000   2.8514558      0.50085464     0              3.3451818      8.5157138    
     24500   2.9475807      0.453165       0              3.3933767      7.9756782    
     25000   2.904111       0.33457026     0              3.2314209      7.0967837    
     25500   2.9107063      0.54693397     0              3.4503635      9.1883879    
     26000   3.1294004      0.40153634     0              3.5231132      7.8644032    
     26500   3.1226428      0.42345104     0              3.5382872      7.8166428    
     27000   2.8453032      0.47029435     0              3.3084843      8.3722576    
     27500   2.9717929      0.53337406     0              3.4977375      8.9245957    
     28000   3.0852073      0.40878283     0              3.4862771      7.8945078    
     28500   3.0359174      0.51466742     0              3.542995       8.7276845    
     29000   2.9727454      0.58736195     0              3.5526755      9.3125231    
     29500   3.305942       0.43711641     0              3.7347936      8.1610838    
     30000   3.0042382      0.49135809     0              3.4880857      8.611058     
     30500   2.8856494      0.52095281     0              3.3993881      8.9147755    
     31000   3.0419597      0.32020942     0              3.3545642      6.8779721    
     31500   3.1438161      0.38383044     0              3.519787       7.5824301    
     32000   3.1836021      0.32698705     0              3.5026301      6.91097      
     32500   3.0863995      0.36285966     0              3.4415431      7.216905     
     33000   2.9037702      0.50500554     0              3.4015163      8.4888539    
     33500   2.9020206      0.49315227     0              3.3879178      8.5321111    
     34000   2.612639       0.56726689     0              3.1733743      8.7465168    
     34500   2.8464864      0.38907927     0              3.2284494      7.4088433    
     35000   2.8343216      0.45425731     0              3.2814931      8.0021582    
     35500   2.9124335      0.44498919     0              3.3501416      7.7441173    
     36000   2.8404793      0.38538341     0              3.2187616      7.3478763    
     36500   2.8659902      0.5110939      0              3.3699191      8.4371532    
     37000   2.8382512      0.45264046     0              3.283796       8.0450202    
     37500   3.20118        0.46750599     0              3.660683       8.4600315    
     38000   3.0730346      0.44392444     0              3.5092765      8.1654203    
     38500   3.0716821      0.47914376     0              3.5431466      8.1505849    
     39000   3.0602432      0.44198177     0              3.4945744      8.1687553    
     39500   3.0451521      0.5261254      0              3.5636646      8.9704138    
     40000   3.2243307      0.43678405     0              3.6530539      8.0871665    
     40500   3.0755789      0.41265401     0              3.4805439      7.5177267    
     41000   3.1968112      0.48698571     0              3.6758048      8.3707989    
     41500   3.1295868      0.39899524     0              3.5207581      7.9972707    
     42000   3.2740636      0.3883147      0              3.6541932      7.7692391    
     42500   3.0261691      0.4198884      0              3.4384921      7.8336043    
     43000   2.7158773      0.54741464     0              3.2565023      8.5691426    
     43500   2.8287293      0.33945113     0              3.1611086      7.0579112    
     44000   2.885138       0.42306045     0              3.3009856      7.980979     
     44500   2.8678692      0.46721904     0              3.3279185      8.3811487    
     45000   2.7878987      0.5239948      0              3.3049237      8.7505398    
     45500   3.1417545      0.39252782     0              3.526428       7.7905149    
     46000   3.1287157      0.45845484     0              3.5793487      8.4945324    
     46500   3.1963777      0.41810536     0              3.6064921      8.018696     
     47000   3.0691407      0.6330656      0              3.6945335      10.158901    
     47500   3.1295991      0.52673267     0              3.6485078      8.8861052    
     48000   2.9658339      0.58472724     0              3.5431465      9.6989409    
     48500   3.0437651      0.36748225     0              3.4036379      7.4533215    
     49000   3.0808394      0.38762731     0              3.4607646      7.6357267    
     49500   3.0402603      0.44252094     0              3.4751806      8.170907     
     50000   3.0533334      0.45122521     0              3.4969252      7.9185146    
Loop time of 0.809699 on 4 procs for 50000 steps with 400 atoms

Performance: 53353139.698 tau/day, 61751.319 timesteps/s, 24.701 Matom-step/s
99.2% CPU use with 4 MPI tasks x 1 OpenMP threads

MPI task timing breakdown:
Section |  min time  |  avg time  |  max time  |%varavg| %total
---------------------------------------------------------------
Pair    | 0.091976   | 0.09297    | 0.095453   |   0.5 | 11.48
Neigh   | 0.19868    | 0.20122    | 0.20337    |   0.4 | 24.85
Comm    | 0.3123     | 0.3135     | 0.31435    |   0.1 | 38.72
Output  | 0.0011246  | 0.0021418  | 0.0051868  |   3.8 |  0.26
Modify  | 0.11948    | 0.12025    | 0.12171    |   0.3 | 14.85
Other   |            | 0.07962    |            |       |  9.83

Nlocal:            100 ave         104 max          95 min
Histogram: 1 0 0 0 1 0 0 1 0 1
Nghost:          50.75 ave          52 max          50 min
Histogram: 2 0 0 0 0 1 0 0 0 1
Neighs:         158.25 ave         180 max         138 min
Histogram: 1 0 1 0 0 0 0 1 0 1

Total # of neighbors = 633
Ave neighs/atom = 1.5825
Neighbor list builds = 16940
Dangerous builds = 0
Generated 0 of 0 mixed pair_coeff terms from geometric mixing rule
Setting up Verlet run ...
  Unit style    : lj
  Current step  : 50000
  Time step     : 0.01
Per MPI rank memory allocation (min/avg/max) = 3.077 | 3.077 | 3.077 Mbytes
   Step          Temp          E_pair         E_mol          TotEng         Press     
     50000   3.0533334      0.45122521     0              3.4969252      7.9185146    
     50500   2.9741927      0.63754948     0              3.6043067      9.9442237    
     51000   3.1595905      0.60416948     0              3.755861       9.4998977    
     51500   3.29089        0.45397557     0              3.7366384      8.432224     
     52000   3.0469849      0.5279378      0              3.5673052      8.6928065    
     52500   3.047835       0.3700608      0              3.4102762      7.6013171    
     53000   2.9847834      0.47606823     0              3.4533897      8.1142852    
     53500   2.7372339      0.65334615     0              3.3837369      9.931091     
     54000   2.8210305      0.45736667     0              3.2713446      7.7850614    
     54500   2.758793       0.30465306     0              3.0565491      6.6501869    
     55000   2.8151609      0.39619183     0              3.2043149      7.4351542    
     55500   2.7868922      0.46052973     0              3.2404547      7.9364132    
     56000   2.884633       0.36968774     0              3.2471091      7.2569709    
     56500   2.7946572      0.49358148     0              3.281252       8.5740103    
     57000   2.9740391      0.48126609     0              3.4478701      8.4807797    
     57500   2.8658158      0.41961862     0              3.2782699      7.775367     
     58000   2.8464953      0.50415932     0              3.3435384      8.1397028    
     58500   3.1233394      0.40434139     0              3.5198724      8.0323169    
     59000   2.7180316      0.47985299     0              3.1910896      8.2715351    
     59500   2.7381774      0.3665054      0              3.0978373      7.0285788    
     60000   2.6064085      0.47812445     0              3.0780169      8.2074913    
     60500   2.5981235      0.39752023     0              2.9891484      7.3839958    
     61000   2.4292449      0.30253596     0              2.7257077      6.3664556    
     61500   2.3627865      0.40811566     0              2.7649952      7.4416299    
     62000   2.4804862      0.43495119     0              2.9092362      7.4839116    
     62500   2.6173151      0.37871958     0              2.9894914      7.3243324    
     63000   2.536906       0.29282072     0              2.8233844      5.8866292    
     63500   2.5928035      0.37226053     0              2.9585821      7.0191542    
     64000   2.5647431      0.42184087     0              2.9801722      7.6891316    
     64500   2.5263746      0.48351515     0              3.0035738      7.919019     
     65000   2.5192155      0.4063315      0              2.919249       7.2864182    
     65500   2.5235108      0.40988029     0              2.9270823      7.4225928    
     66000   2.5702159      0.37758778     0              2.9413782      6.9513087    
     66500   2.6274956      0.41994162     0              3.0408685      7.4513011    
     67000   2.6552394      0.45050442     0              3.0991057      7.8477229    
     67500   2.7239024      0.3681554      0              3.085248       7.1182382    
     68000   2.396307       0.28700878     0              2.677325       6.3394757    
     68500   2.4172399      0.34266417     0              2.7538609      6.6315865    
     69000   2.3585221      0.35571325     0              2.7083391      6.8048149    
     69500   2.2796361      0.44331677     0              2.7172538      7.6138131    
     70000   2.2262769      0.34225277     0              2.562964       6.5213734    
     70500   2.3045395      0.39832534     0              2.6971035      7.3355737    
     71000   2.2972601      0.34795309     0              2.63947        6.5988435    
     71500   2.3171084      0.26086478     0              2.5721805      5.7922178    
     72000   2.1182332      0.28962321     0              2.4025608      5.7529758    
     72500   2.241786       0.30239015     0              2.5385717      6.1973546    
     73000   2.272085       0.31945411     0              2.5858589      6.235767     
     73500   2.2486873      0.30479652     0              2.5478621      5.9944257    
     74000   2.1719957      0.34012505     0              2.5066908      6.5617847    
     74500   2.3389985      0.27123748     0              2.6043885      5.4672773    
     75000   2.3151542      0.35504326     0              2.6644095      6.6848382    
     75500   2.3816781      0.34919199     0              2.7249159      6.7129106    
     76000   2.2377704      0.36184064     0              2.5940166      6.6867904    
     76500   2.3997084      0.28000296     0              2.6737121      5.9287043    
     77000   2.4747005      0.36599307     0              2.8345069      7.0137896    
     77500   2.3842582      0.34150721     0              2.7198047      6.4142388    
     78000   2.1968252      0.38031096     0              2.5716441      6.7376685    
     78500   2.1462185      0.35511966     0              2.4959727      6.4826654    
     79000   2.3332022      0.32576908     0              2.6531382      6.4638617    
     79500   2.15866        0.34641477     0              2.4996781      6.6125927    
     80000   2.1721901      0.3171394      0              2.4838991      6.3284562    
     80500   2.1804158      0.30655824     0              2.481523       6.099957     
     81000   2.2470265      0.23095778     0              2.4723667      5.2431186    
     81500   2.333382       0.23616432     0              2.5637129      5.5848025    
     82000   2.2128018      0.19552087     0              2.4027907      4.8111871    
     82500   2.1571153      0.26102886     0              2.4127513      5.6551321    
     83000   2.210417       0.27614164     0              2.4810326      5.7773299    
     83500   2.2018196      0.31627447     0              2.5125895      6.0531591    
     84000   1.887263       0.32645136     0              2.2089962      6.0665788    
     84500   2.0612881      0.19133513     0              2.24747        4.5956237    
     85000   1.9435193      0.29948188     0              2.2381424      5.9185638    
     85500   2.0134287      0.21018894     0              2.2185841      4.9460612    
     86000   1.8952204      0.32555229     0              2.2160347      6.0972918    
     86500   1.8452184      0.3096302      0              2.1502355      5.9390257    
     87000   1.7967729      0.23033241     0              2.0226134      4.9156116    
     87500   1.8010041      0.22990294     0              2.0264046      4.9407424    
     88000   1.8385896      0.31565822     0              2.1496513      6.2949962    
     88500   1.9340026      0.30293615     0              2.2321037      5.9650102    
     89000   1.8757895      0.27719718     0              2.1482972      5.4824198    
     89500   1.9613288      0.27721361     0              2.2336391      5.3326196    
     90000   2.0045134      0.29537885     0              2.294881       5.851411     
     90500   2.0093654      0.27595022     0              2.2802922      5.6111565    
     91000   1.8628343      0.28441346     0              2.1425907      5.3912612    
     91500   1.8001219      0.24480151     0              2.0404231      5.3740561    
     92000   1.7364237      0.2870962      0              2.0191788      5.6554068    
     92500   1.7056945      0.25999459     0              1.9614249      5.1875375    
     93000   1.6658091      0.23431577     0              1.8959604      4.7852557    
     93500   1.7201976      0.23398527     0              1.9498824      4.9646308    
     94000   1.6759263      0.23589359     0              1.9076301      4.8720567    
     94500   1.5551883      0.27051232     0              1.8218127      5.3177014    
     95000   1.5390844      0.22033016     0              1.7555669      4.5612446    
     95500   1.593423       0.21172293     0              1.8011624      4.4746031    
     96000   1.6399924      0.18830997     0              1.8242024      4.4367484    
     96500   1.5879909      0.20488972     0              1.7889107      4.5756286    
     97000   1.5120103      0.20069398     0              1.7089243      4.4623895    
     97500   1.6633037      0.17596784     0              1.8351133      4.3676927    
     98000   1.5387128      0.23165688     0              1.7665229      4.838064     
     98500   1.5734129      0.19859406     0              1.7680734      4.3639539    
[...]
     69500   2.3512129      1.2088642      0              3.5541991      25.980115    
     70000   2.2040571      1.2463925      0              3.4449394      26.45543     
     70500   2.1998834      1.1358834      0              3.3302671      24.399081    
     71000   2.1494307      1.1885166      0              3.3325737      25.655366    
     71500   2.4150599      1.1635407      0              3.5725629      25.205377    
     72000   2.437908       1.1914431      0              3.6232564      25.721203    
     72500   2.0510485      1.1525944      0              3.1985152      24.412119    
     73000   2.1275654      1.1153919      0              3.2376384      23.687485    
     73500   2.3302928      1.1520045      0              3.4764716      25.028219    
     74000   2.3078015      1.1609903      0              3.4630224      25.209947    
     74500   2.5068342      1.0324308      0              3.5329979      23.825164    
     75000   2.2522056      1.1427802      0              3.3893553      24.393709    
     75500   2.2016035      1.2004635      0              3.3965631      24.942241    
     76000   2.4243681      1.0787903      0              3.4970975      23.706176    
     76500   2.4855009      0.99933058     0              3.4786178      23.009211    
     77000   2.3224392      1.0205876      0              3.3372207      22.46747     
     77500   2.2684983      1.0410361      0              3.3038632      23.05721     
     78000   2.1899706      1.0841266      0              3.2686223      23.77365     
     78500   2.2270882      1.0680956      0              3.2896161      23.199633    
     79000   2.2951182      0.97605515     0              3.2654356      22.499997    
     79500   2.4252508      0.92843226     0              3.3476199      21.574281    
     80000   1.9485739      1.0125549      0              2.9562574      22.290329    
     80500   2.1275532      0.93305127     0              3.0552856      21.821966    
     81000   2.0679425      1.0517226      0              3.1144952      22.973922    
     81500   2.1881934      1.0061491      0              3.188872       23.087026    
     82000   2.1354145      1.1409941      0              3.27107        24.329881    
     82500   2.341141       0.98999215     0              3.3252803      22.519352    
     83000   2.0993779      0.91244264     0              3.0065721      21.109665    
     83500   1.99873        1.0342487      0              3.0279818      22.301655    
     84000   2.0568751      0.9481241      0              2.999857       21.050915    
     84500   1.931875       0.8937862      0              2.8208315      20.186786    
     85000   1.8341228      0.9040162      0              2.7335537      20.630068    
     85500   2.0294471      0.86871182     0              2.8930853      20.504754    
     86000   1.9974758      0.86925791     0              2.86174        21.053575    
     86500   1.8116651      1.040522       0              2.8476579      22.861149    
     87000   1.8919237      0.91116374     0              2.7983576      21.061469    
     87500   1.8292647      0.72946613     0              2.5541576      18.617656    
     88000   1.8113784      0.71984695     0              2.526697       18.651364    
     88500   1.7346176      1.0119475      0              2.7422285      22.975281    
     89000   1.7627442      1.022911       0              2.7812484      22.513172    
     89500   1.9828069      0.82953717     0              2.8073871      20.218553    
     90000   1.9570132      0.79914519     0              2.7512659      19.874479    
     90500   1.9494446      0.85741742     0              2.8019884      19.928129    
     91000   1.9889131      0.85346447     0              2.8374053      19.697621    
     91500   1.8950813      0.81136771     0              2.7017113      19.229079    
     92000   1.8399893      0.78162882     0              2.6170181      18.843792    
     92500   1.8021404      0.80627108     0              2.6039061      19.36025     
     93000   1.7951702      0.75424164     0              2.5449239      18.333444    
     93500   1.7969639      0.76774674     0              2.5602182      18.666143    
     94000   1.7670423      0.78140996     0              2.5440347      19.090364    
     94500   1.710083       0.77720729     0              2.483015       18.457941    
     95000   1.6883443      0.60423917     0              2.2883626      15.699217    
     95500   1.5340466      0.67109252     0              2.201304       16.573967    
     96000   1.5138911      0.77390851     0              2.2840149      18.306325    
     96500   1.6566466      0.60440596     0              2.2569109      15.837652    
     97000   1.5824953      0.69606141     0              2.2746005      17.047504    
     97500   1.6332386      0.67601856     0              2.305174       16.774775    
     98000   1.7099856      0.60818691     0              2.3138975      15.867359    
     98500   1.6834276      0.75629707     0              2.4355161      17.753371    
     99000   1.6849285      0.58584657     0              2.2665627      16.163469    
     99500   1.6362082      0.64659488     0              2.2787125      16.545671    
    100000   1.5275295      0.73377534     0              2.257486       17.700886    
    100500   1.5901248      0.6355059      0              2.2216554      16.271271    
    101000   1.6478439      0.59667119     0              2.2403955      15.697097    
    101500   1.5462964      0.64759645     0              2.1900272      16.328875    
    102000   1.4394615      0.66601056     0              2.1018734      16.648519    
    102500   1.5275485      0.51714271     0              2.0408723      14.050158    
    103000   1.426071       0.52780125     0              1.9503071      14.280184    
    103500   1.4061818      0.62241707     0              2.0250834      15.41444     
    104000   1.4584349      0.6998877      0              2.1546765      17.218284    
    104500   1.5018922      0.5382656      0              2.0364031      14.935201    
    105000   1.4674387      0.58288071     0              2.0466508      15.080268    
    105500   1.4327098      0.51179958     0              1.9409277      14.029927    
    106000   1.4417348      0.54994862     0              1.9880791      14.81361     
    106500   1.3644992      0.550801       0              1.9118889      14.312294    
    107000   1.3593111      0.53190977     0              1.8878226      14.210827    
    107500   1.3789702      0.44312456     0              1.8186474      13.218291    
    108000   1.2760592      0.54562474     0              1.8184938      14.145808    
    108500   1.2010763      0.55922399     0              1.7572976      14.722162    
    109000   1.2207776      0.53182082     0              1.7495464      14.456983    
    109500   1.1226546      0.49005548     0              1.6099035      13.186772    
    110000   1.2029574      0.45065305     0              1.6506031      12.546048    
    110500   1.2207727      0.48789495     0              1.7056158      13.360028    
    111000   1.1611113      0.48659051     0              1.644799       13.302109    
    111500   1.2868591      0.41449792     0              1.6981399      12.063747    
    112000   1.2367051      0.48618826     0              1.7198016      13.563568    
    112500   1.1030395      0.42990119     0              1.5301831      12.13565     
    113000   1.1667146      0.4081375      0              1.5719353      11.981074    
    113500   1.1742393      0.36826773     0              1.5395714      11.399628    
    114000   1.1119516      0.40454801     0              1.5137197      11.540823    
    114500   1.040382       0.42086984     0              1.4586509      12.009171    
    115000   0.98337034     0.43964318     0              1.4205551      12.293311    
    115500   1.0665708      0.34098444     0              1.4048888      10.446811    
    116000   1.086663       0.397693       0              1.4816393      11.834084    
    116500   1.049516       0.43972043     0              1.4866126      12.679638    
    117000   1.0814173      0.43826487     0              1.5169786      12.235533    
    117500   1.1754994      0.42647302     0              1.5990336      12.201575    
    118000   1.022559       0.44564219     0              1.4656447      12.549585    
    118500   1.0417513      0.37174992     0              1.4108969      10.985981    
    119000   0.97954384     0.37477841     0              1.3518734      11.093032    
    119500   0.97618864     0.31560821     0              1.2893564      10.053942    
    120000   0.93670607     0.34341678     0              1.2777811      10.064232    
    120500   0.90606652     0.34230618     0              1.2461075      10.288331    
    121000   0.8988724      0.29486519     0              1.1914904      9.4383893    
    121500   0.85004172     0.3130521      0              1.1609687      9.9416604    
    122000   0.88639014     0.29877933     0              1.1829535      9.8045837    
    122500   0.87057175     0.34491656     0              1.2133119      10.406437    
    123000   0.922998       0.31059825     0              1.2312888      9.7057832    
    123500   0.8861072      0.34614634     0              1.2300383      10.75546     
    124000   0.94243948     0.30870499     0              1.2487884      9.5930992    
    124500   0.88692925     0.26003569     0              1.1447476      8.969443     
    125000   0.87270262     0.25797032     0              1.1284912      8.9597163    
    125500   0.77017112     0.2732177      0              1.0414634      8.7572563    
    126000   0.74462718     0.25955662     0              1.0023222      8.7662285    
    126500   0.71360444     0.25653011     0              0.96835053     8.4059621    
    127000   0.71533932     0.2205452      0              0.93409617     7.7507311    
    127500   0.69956718     0.25961391     0              0.95743217     8.7698641    
    128000   0.76315002     0.20380026     0              0.9650424      7.4891631    
    128500   0.72230971     0.2512441      0              0.97174804     8.4430541    
    129000   0.68994697     0.25578512     0              0.94400722     8.5932605    
    129500   0.65110358     0.23107167     0              0.88054748     7.978063     
    130000   0.64856792     0.21214782     0              0.85909432     7.6119636    
    130500   0.63598466     0.18763316     0              0.82202786     6.8204801    
    131000   0.64250344     0.19726635     0              0.83816353     7.3738771    
    131500   0.63093042     0.18219508     0              0.81154818     6.704526     
    132000   0.64308544     0.1873161      0              0.82879382     7.2032514    
    132500   0.62102795     0.16725561     0              0.786731       6.5245995    
    133000   0.56755771     0.17272565     0              0.73886446     6.6020576    
    133500   0.55993469     0.19603759     0              0.75457244     7.3510882    
    134000   0.57577635     0.19339584     0              0.76773275     7.1128345    
    134500   0.5482244      0.17700081     0              0.72385465     6.4603258    
    135000   0.54485876     0.17782823     0              0.72132484     6.5135489    
    135500   0.53585677     0.15886241     0              0.69337954     6.1229993    
    136000   0.52324106     0.16215425     0              0.6840872      6.0091724    
    136500   0.50913153     0.11569642     0              0.62355512     4.9963899    
    137000   0.47033714     0.1411305      0              0.6102918      5.5067297    
    137500   0.44951828     0.16163253     0              0.61002701     6.2138206    
    138000   0.44364439     0.13342922     0              0.5759645      5.7816018    
    138500   0.45771173     0.1330835      0              0.58965095     5.2275552    
    139000   0.42687801     0.13637183     0              0.56218265     5.3976814    
    139500   0.40361036     0.10286237     0              0.5054637      4.7478109    
    140000   0.36239678     0.11234995     0              0.47384075     4.6821243    
    140500   0.36710316     0.097809295    0              0.4639947      4.4273455    
    141000   0.3659234      0.088310648    0              0.45331924     4.2710976    
    141500   0.3485147      0.082784034    0              0.43042745     3.8458444    
    142000   0.32875995     0.10546893     0              0.43340698     4.6080108    
    142500   0.33197787     0.084984743    0              0.41613266     4.075247     
    143000   0.31527321     0.078249577    0              0.3927346      3.7759232    
    143500   0.31431353     0.071397409    0              0.38492515     3.6346819    
    144000   0.28469911     0.075163973    0              0.35915134     3.738506     
    144500   0.26614164     0.062683867    0              0.32816015     3.2661205    
    145000   0.24854163     0.05559078     0              0.30351106     3.0462168    
    145500   0.22350469     0.042879966    0              0.26582589     2.5135965    
    146000   0.21931995     0.046610013    0              0.26538167     2.7092554    
    146500   0.21117635     0.049167955    0              0.25981636     2.6447025    
    147000   0.18839984     0.042001723    0              0.22993056     2.5266711    
    147500   0.18370635     0.037971995    0              0.22121908     2.2561663    
    148000   0.1501051      0.028986554    0              0.17871639     1.9539884    
    148500   0.14331304     0.027230294    0              0.17018505     1.7757765    
    149000   0.14044433     0.021594235    0              0.16168745     1.6496894    
    149500   0.11288068     0.019911912    0              0.1325104      1.5347138    
    150000   0.10277087     0.01632058     0              0.11883453     1.2514065    
Loop time of 1.60797 on 4 procs for 100000 steps with 400 atoms

Performance: 53732231.987 tau/day, 62190.083 timesteps/s, 24.876 Matom-step/s
99.3% CPU use with 4 MPI tasks x 1 OpenMP threads

MPI task timing breakdown:
Section |  min time  |  avg time  |  max time  |%varavg| %total
---------------------------------------------------------------
Pair    | 0.29639    | 0.29987    | 0.30327    |   0.6 | 18.65
Neigh   | 0.30119    | 0.30812    | 0.31318    |   0.8 | 19.16
Comm    | 0.59313    | 0.60124    | 0.60745    |   0.7 | 37.39
Output  | 0.011741   | 0.012156   | 0.01339    |   0.6 |  0.76
Modify  | 0.24151    | 0.24177    | 0.24215    |   0.1 | 15.04
Other   |            | 0.1448     |            |       |  9.01

Nlocal:            100 ave         102 max          97 min
Histogram: 1 0 0 0 0 0 1 0 1 1
Nghost:             59 ave          60 max          56 min
Histogram: 1 0 0 0 0 0 0 0 0 3
Neighs:            296 ave         302 max         291 min
Histogram: 1 1 0 0 0 0 1 0 0 1

Total # of neighbors = 1184
Ave neighs/atom = 2.96
Neighbor list builds = 23926
Dangerous builds = 0
Total wall time: 0:00:02
LAMMPS (15 Sep 2022)
OMP_NUM_THREADS environment is not set. Defaulting to 1 thread. (src/comm.cpp:98)
  using 1 OpenMP thread(s) per MPI task
Lattice spacing in x,y,z = 0.95346259 0.95346259 0.95346259
Created orthogonal box = (0 0 -0.47673129) to (19.069252 19.069252 0.47673129)
  2 by 2 by 1 MPI processor grid
Created 400 atoms
  using lattice units in orthogonal box = (0 0 -0.47673129) to (19.069252 19.069252 0.47673129)
  create_atoms CPU = 0.000 seconds
Generated 0 of 0 mixed pair_coeff terms from geometric mixing rule
Neighbor list info ...
  update: every = 1 steps, delay = 0 steps, check = yes
  max neighbors/atom: 2000, page size: 100000
  master list distance cutoff = 1.3
  ghost atom cutoff = 1.3
  binsize = 0.65, bins = 30 30 2
  1 neighbor lists, perpetual/occasional/extra = 1 0 0
  (1) pair lj/cut, perpetual
      attributes: half, newton on
      pair build: half/bin/atomonly/newton
      stencil: half/bin/2d
      bin: standard
Setting up Verlet run ...
  Unit style    : lj
  Current step  : 0
  Time step     : 0.01
Per MPI rank memory allocation (min/avg/max) = 3.049 | 3.049 | 3.049 Mbytes
   Step          Temp          E_pair         E_mol          TotEng         Press     
         0   3              2.19122        0              5.18372        61.445802    
       500   3.1851357      2.0518504      0              5.2290233      44.095152    
      1000   3.3207671      2.083191       0              5.3956561      45.72244     
      1500   2.7997008      2.3118059      0              5.1045075      47.483351    
      2000   3.2893062      2.0396488      0              5.3207317      44.821694    
      2500   2.9981428      1.954802       0              4.9454494      41.816971    
      3000   3.201918       2.0639772      0              5.2578904      44.013489    
      3500   3.077254       2.0549459      0              5.1245067      44.062024    
      4000   3.1175513      2.2150292      0              5.3247867      46.916246    
      4500   2.8151226      2.1251285      0              4.9332133      44.432775    
      5000   2.9915191      1.9694336      0              4.9534739      42.653585    
      5500   3.310561       2.1207496      0              5.4230342      44.786812    
      6000   3.4063148      2.0486161      0              5.4464151      45.081438    
      6500   3.0963682      1.870077       0              4.9587043      41.106563    
      7000   2.8610878      2.0771029      0              4.9310379      44.996418    
      7500   2.9014941      1.9416236      0              4.835864       42.330683    
      8000   3.058965       2.1166764      0              5.1679939      45.177521    
      8500   3.2597136      2.1514431      0              5.4030074      45.564216    
      9000   3.3322833      2.0837923      0              5.407745       45.160034    
      9500   2.9208424      2.1384269      0              5.0519673      45.373585    
     10000   2.9594555      2.0791864      0              5.0312433      44.588024    
     10500   2.9878387      1.9714828      0              4.9518519      43.976729    
     11000   2.9967768      1.9768899      0              4.9661748      43.782219    
     11500   3.0747346      1.9640059      0              5.0310537      43.37343     
     12000   3.0981048      2.1655709      0              5.2559304      45.957632    
     12500   3.4885807      2.1675825      0              5.6474418      45.482712    
     13000   3.1070003      1.8856668      0              4.9848996      42.008726    
     13500   2.8307329      2.0569592      0              4.8806153      44.081199    
     14000   2.9895975      2.1661737      0              5.1482972      45.956281    
     14500   3.2785775      2.198035       0              5.468416       45.732523    
     15000   2.9714223      1.9440709      0              4.9080647      42.664358    
     15500   3.0351254      1.9131781      0              4.9407157      41.474454    
ERROR: Lost atoms: original 400 current 372 (src/thermo.cpp:481)
Last command: run ${equil_steps}
--------------------------------------------------------------------------
Primary job  terminated normally, but 1 process returned
a non-zero exit code. Per user-direction, the job has been aborted.
--------------------------------------------------------------------------
--------------------------------------------------------------------------
mpirun detected that one or more processes exited with non-zero status, thus causing
the job to be terminated. The first process to do so was:

  Process name: [[57919,1],2]
  Exit code:    1
--------------------------------------------------------------------------
